 vasp.6.1.0 28Jan20 (build Jan 13 2021 21:44:47) complex                        
  
 executed on             LinuxIFC date 2021.09.12  19:23:29
 running on    9 total cores
 distrk:  each k-point on    1 cores,    9 groups
 distr:  one band on NCORE=   1 cores,    1 groups


--------------------------------------------------------------------------------------------------------


 INCAR:
 POTCAR:    PAW_PBE Ag 02Apr2005                  
 POTCAR:    PAW_PBE Bi 08Apr2002                  
 POTCAR:    PAW_PBE I 08Apr2002                   
 -----------------------------------------------------------------------------
|                                                                             |
|           W    W    AA    RRRRR   N    N  II  N    N   GGGG   !!!           |
|           W    W   A  A   R    R  NN   N  II  NN   N  G    G  !!!           |
|           W    W  A    A  R    R  N N  N  II  N N  N  G       !!!           |
|           W WW W  AAAAAA  RRRRR   N  N N  II  N  N N  G  GGG   !            |
|           WW  WW  A    A  R   R   N   NN  II  N   NN  G    G                |
|           W    W  A    A  R    R  N    N  II  N    N   GGGG   !!!           |
|                                                                             |
|     For optimal performance we recommend to set                             |
|       NCORE = 4 - approx SQRT(number of cores).                             |
|     NCORE specifies how many cores store one orbital (NPAR=cpu/NCORE).      |
|     This setting can greatly improve the performance of VASP for DFT.       |
|     The default, NCORE=1 might be grossly inefficient on modern             |
|     multi-core architectures or massively parallel machines. Do your        |
|     own testing!!!!                                                         |
|     Unfortunately you need to use the default for GW and RPA                |
|     calculations (for HF NCORE is supported but not extensively tested      |
|     yet).                                                                   |
|                                                                             |
 -----------------------------------------------------------------------------

 POTCAR:    PAW_PBE Ag 02Apr2005                  
   VRHFIN =Ag : s1 d10                                                                              
   LEXCH  = PE                                                                                      
   EATOM  =  1037.2675 eV,   76.2370 Ry                                                             
                                                                                                    
   TITEL  = PAW_PBE Ag 02Apr2005                                                                    
   LULTRA =        F    use ultrasoft PP ?                                                          
   IUNSCR =        1    unscreen: 0-lin 1-nonlin 2-no                                               
   RPACOR =    2.000    partial core radius                                                         
   POMASS =  107.868; ZVAL   =   11.000    mass and valenz                                          
   RCORE  =    2.500    outmost cutoff radius                                                       
   RWIGS  =    2.840; RWIGS  =    1.503    wigner-seitz radius (au A)                               
   ENMAX  =  249.844; ENMIN  =  187.383 eV                                                          
   ICORE  =        3    local potential                                                             
   LCOR   =        T    correct aug charges                                                         
   LPAW   =        T    paw PP                                                                      
   EAUG   =  412.496                                                                                
   DEXC   =    0.000                                                                                
   RMAX   =    2.560    core radius for proj-oper                                                   
   RAUG   =    1.300    factor for augmentation sphere                                              
   RDEP   =    2.576    radius for radial grids                                                     
   RDEPT  =    2.072    core radius for aug-charge                                                  
                                                                                                    
   Atomic configuration                                                                             
   12 entries                                                                                       
     n  l   j            E        occ.                                                              
     1  0  0.50    -25324.9161   2.0000                                                             
     2  0  0.50     -3728.5341   2.0000                                                             
     2  1  1.50     -3344.0404   6.0000                                                             
     3  0  0.50      -683.5581   2.0000                                                             
     3  1  1.50      -557.3225   6.0000                                                             
     3  2  2.50      -358.3853  10.0000                                                             
     4  0  0.50       -95.0341   2.0000                                                             
     4  1  1.50       -58.5511   6.0000                                                             
     4  2  2.50        -7.4440  10.0000                                                             
     5  0  0.50        -4.4045   1.0000                                                             
     5  1  0.50        -1.3606   0.0000                                                             
     4  3  2.50        -1.3606   0.0000                                                             
   Description                                                                                      
     l       E           TYP  RCUT    TYP  RCUT                                                     
     2     -7.4439781     23  2.400                                                                 
     2     -8.8045607     23  2.400                                                                 
     0     -4.4044681     23  2.400                                                                 
     0      1.9520038     23  2.400                                                                 
     1     -1.3605826     23  2.500                                                                 
     1     27.2116520     23  2.500                                                                 
     3     -4.0817478     23  2.400                                                                 
  local pseudopotential read in
  partial core-charges read in
  partial kinetic energy density read in
  atomic valenz-charges read in
  non local Contribution for L=           2  read in
    real space projection operators read in
  non local Contribution for L=           2  read in
    real space projection operators read in
  non local Contribution for L=           0  read in
    real space projection operators read in
  non local Contribution for L=           0  read in
    real space projection operators read in
  non local Contribution for L=           1  read in
    real space projection operators read in
  non local Contribution for L=           1  read in
    real space projection operators read in
    PAW grid and wavefunctions read in
 
   number of l-projection  operators is LMAX  =           6
   number of lm-projection operators is LMMAX =          18
 
 POTCAR:    PAW_PBE Bi 08Apr2002                  
   VRHFIN =Bi:                                                                                      
   LEXCH  = PE                                                                                      
   EATOM  =   150.8133 eV,   11.0845 Ry                                                             
                                                                                                    
   TITEL  = PAW_PBE Bi 08Apr2002                                                                    
   LULTRA =        F    use ultrasoft PP ?                                                          
   IUNSCR =        1    unscreen: 0-lin 1-nonlin 2-no                                               
   RPACOR =    2.200    partial core radius                                                         
   POMASS =  208.980; ZVAL   =    5.000    mass and valenz                                          
   RCORE  =    3.000    outmost cutoff radius                                                       
   RWIGS  =    3.090; RWIGS  =    1.635    wigner-seitz radius (au A)                               
   ENMAX  =  105.037; ENMIN  =   78.777 eV                                                          
   ICORE  =        3    local potential                                                             
   LCOR   =        T    correct aug charges                                                         
   LPAW   =        T    paw PP                                                                      
   EAUG   =  265.427                                                                                
   DEXC   =    0.000                                                                                
   RMAX   =    3.067    core radius for proj-oper                                                   
   RAUG   =    1.300    factor for augmentation sphere                                              
   RDEP   =    3.012    radius for radial grids                                                     
   RDEPT  =    2.604    core radius for aug-charge                                                  
                                                                                                    
   Atomic configuration                                                                             
   17 entries                                                                                       
     n  l   j            E        occ.                                                              
     1  0  0.50    -90639.6582   2.0000                                                             
     2  0  0.50    -16282.4667   2.0000                                                             
     2  1  1.50    -13922.8287   6.0000                                                             
     3  0  0.50     -3930.4763   2.0000                                                             
     3  1  1.50     -3256.7013   6.0000                                                             
     3  2  2.50     -2581.6169  10.0000                                                             
     4  0  0.50      -902.2614   2.0000                                                             
     4  1  1.50      -681.5915   6.0000                                                             
     4  2  2.50      -429.8249  10.0000                                                             
     4  3  3.50      -152.6004  14.0000                                                             
     5  0  0.50      -157.7156   2.0000                                                             
     5  1  1.50       -95.8054   6.0000                                                             
     5  2  2.50       -27.0806  10.0000                                                             
     6  0  0.50       -14.4732   2.0000                                                             
     6  1  1.50        -4.5702   3.0000                                                             
     6  2  2.50        -2.7212   0.0000                                                             
     5  3  2.50        -2.7212   0.0000                                                             
   Description                                                                                      
     l       E           TYP  RCUT    TYP  RCUT                                                     
     0    -14.4732299     23  3.000                                                                 
     0    -12.2452434     23  3.000                                                                 
     1     -4.5701666     23  3.000                                                                 
     1    -13.6058260     23  3.000                                                                 
     2     -2.7211652     23  3.000                                                                 
     3     -1.3605826      7  3.000                                                                 
  local pseudopotential read in
  partial core-charges read in
  partial kinetic energy density read in
  kinetic energy density of atom read in
  atomic valenz-charges read in
  non local Contribution for L=           0  read in
    real space projection operators read in
  non local Contribution for L=           0  read in
    real space projection operators read in
  non local Contribution for L=           1  read in
    real space projection operators read in
  non local Contribution for L=           1  read in
    real space projection operators read in
  non local Contribution for L=           2  read in
    real space projection operators read in
    PAW grid and wavefunctions read in
 
   number of l-projection  operators is LMAX  =           5
   number of lm-projection operators is LMMAX =          13
 
 POTCAR:    PAW_PBE I 08Apr2002                   
   VRHFIN =I : s2p5                                                                                 
   LEXCH  = PE                                                                                      
   EATOM  =   315.8678 eV,   23.2156 Ry                                                             
                                                                                                    
   TITEL  = PAW_PBE I 08Apr2002                                                                     
   LULTRA =        F    use ultrasoft PP ?                                                          
   IUNSCR =        1    unscreen: 0-lin 1-nonlin 2-no                                               
   RPACOR =    2.200    partial core radius                                                         
   POMASS =  126.904; ZVAL   =    7.000    mass and valenz                                          
   RCORE  =    2.300    outmost cutoff radius                                                       
   RWIGS  =    2.810; RWIGS  =    1.487    wigner-seitz radius (au A)                               
   ENMAX  =  175.647; ENMIN  =  131.735 eV                                                          
   ICORE  =        3    local potential                                                             
   LCOR   =        T    correct aug charges                                                         
   LPAW   =        T    paw PP                                                                      
   EAUG   =  370.139                                                                                
   DEXC   =    0.000                                                                                
   RMAX   =    2.359    core radius for proj-oper                                                   
   RAUG   =    1.300    factor for augmentation sphere                                              
   RDEP   =    2.392    radius for radial grids                                                     
   RDEPT  =    2.170    core radius for aug-charge                                                  
                                                                                                    
   Atomic configuration                                                                             
   13 entries                                                                                       
     n  l   j            E        occ.                                                              
     1  0  0.50    -32976.3739   2.0000                                                             
     2  0  0.50     -5094.5933   2.0000                                                             
     2  1  1.50     -4572.0131   6.0000                                                             
     3  0  0.50     -1028.2813   2.0000                                                             
     3  1  1.50      -859.0250   6.0000                                                             
     3  2  2.50      -605.7620  10.0000                                                             
     4  0  0.50      -180.5540   2.0000                                                             
     4  1  1.50      -127.5306   6.0000                                                             
     4  2  2.50       -50.2720  10.0000                                                             
     5  0  0.50       -17.4058   2.0000                                                             
     5  1  0.50        -7.0851   5.0000                                                             
     5  2  1.50        -7.0750   0.0000                                                             
     4  3  2.50        -7.0750   0.0000                                                             
   Description                                                                                      
     l       E           TYP  RCUT    TYP  RCUT                                                     
     0    -17.4058016     23  2.300                                                                 
     0    -18.7663842     23  2.300                                                                 
     1     -7.0850686     23  2.300                                                                 
     1     -4.2150896     23  2.300                                                                 
     2     -7.0750295     23  2.300                                                                 
     3     -1.3605826     23  2.300                                                                 
  local pseudopotential read in
  partial core-charges read in
  partial kinetic energy density read in
  atomic valenz-charges read in
  non local Contribution for L=           0  read in
    real space projection operators read in
  non local Contribution for L=           0  read in
    real space projection operators read in
  non local Contribution for L=           1  read in
    real space projection operators read in
  non local Contribution for L=           1  read in
    real space projection operators read in
  non local Contribution for L=           2  read in
    real space projection operators read in
    PAW grid and wavefunctions read in
 
   number of l-projection  operators is LMAX  =           5
   number of lm-projection operators is LMMAX =          13
 
 -----------------------------------------------------------------------------
|                                                                             |
|               ----> ADVICE to this user running VASP <----                  |
|                                                                             |
|     You have a (more or less) 'large supercell' and for larger cells it     |
|     might be more efficient to use real-space projection operators.         |
|     Therefore, try LREAL= Auto in the INCAR file.                           |
|     Mind: For very accurate calculation, you might also keep the            |
|     reciprocal projection scheme (i.e. LREAL=.FALSE.).                      |
|                                                                             |
 -----------------------------------------------------------------------------

  PAW_PBE Ag 02Apr2005                  :
 energy of atom  1       EATOM=-1037.2675
 kinetic energy error for atom=    0.0686 (will be added to EATOM!!)
  PAW_PBE Bi 08Apr2002                  :
 energy of atom  2       EATOM= -150.8133
 kinetic energy error for atom=    0.0004 (will be added to EATOM!!)
  PAW_PBE I 08Apr2002                   :
 energy of atom  3       EATOM= -315.8678
 kinetic energy error for atom=    0.0044 (will be added to EATOM!!)
 
 
 POSCAR: Generation Seed Number
  positions in direct lattice
  velocities in cartesian coordinates
 exchange correlation table for  LEXCH =        8
   RHO(1)=    0.500       N(1)  =     2000
   RHO(2)=  100.500       N(2)  =     4000
 


--------------------------------------------------------------------------------------------------------


 ion  position               nearest neighbor table
   1  0.500  0.516  0.984-  40 2.97  31 2.97  23 3.06  19 3.06  29 3.38  39 3.39
   2  0.749  0.735  0.984-  48 2.97  23 2.98  31 3.06  27 3.07  21 3.37  47 3.39
   3  0.000  0.235  0.265-  26 2.98  33 2.98  41 3.05  45 3.05  25 3.38  35 3.38
   4  0.999  0.735  0.765-  36 2.98  27 2.98  48 3.05  44 3.06  28 3.37  34 3.38
   5  0.250  0.015  0.265-  41 2.97  18 2.98  33 3.06  37 3.06  17 3.36  43 3.38
   6  0.499  0.017  0.484-  37 2.97  30 2.97  18 3.05  22 3.06  38 3.39  32 3.40
   7  0.250  0.516  0.765-  44 2.97  19 2.98  40 3.06  36 3.07  20 3.36  42 3.38
   8  0.750  0.235  0.484-  45 2.97  22 2.97  30 3.06  26 3.07  24 3.36  46 3.38
   9  1.000  0.997  0.003-  27 3.05  33 3.05  21 3.12  17 3.12  34 3.21  25 3.21
  10  0.250  0.253  0.003-  19 3.05  41 3.06  25 3.12  29 3.12  42 3.20  17 3.21
  11  1.000  0.497  0.503-  26 3.05  36 3.05  24 3.12  20 3.12  35 3.21  28 3.21
  12  0.750  0.997  0.748-  22 3.05  48 3.06  34 3.12  38 3.12  46 3.20  21 3.21
  13  0.750  0.497  0.248-  23 3.05  45 3.06  35 3.12  39 3.12  47 3.20  24 3.21
  14  0.500  0.753  0.248-  37 3.06  31 3.06  47 3.12  43 3.12  32 3.20  39 3.20
  15  0.500  0.253  0.748-  30 3.05  40 3.06  42 3.12  46 3.12  38 3.21  29 3.21
  16  0.250  0.753  0.503-  18 3.05  44 3.06  32 3.12  28 3.12  43 3.20  20 3.21
  17  0.246  1.000  0.000-   9 3.12  10 3.21   5 3.36
  18  0.260  0.993  0.498-   5 2.98   6 3.05  16 3.05
  19  0.260  0.493  0.999-   7 2.98  10 3.05   1 3.06
  20  0.246  0.500  0.501-  11 3.12  16 3.21   7 3.36
  21  0.754  0.000  0.000-   9 3.12  12 3.21   2 3.37
  22  0.739  0.002  0.507-   8 2.97  12 3.05   6 3.06
  23  0.740  0.502  0.007-   2 2.98  13 3.05   1 3.06
  24  0.754  0.500  0.500-  11 3.12  13 3.21   8 3.36
  25  0.004  0.250  0.999-  10 3.12   9 3.21   3 3.38
  26  0.990  0.257  0.499-   3 2.98  11 3.05   8 3.07
  27  0.989  0.757  0.999-   4 2.98   9 3.05   2 3.07
  28  0.004  0.750  0.500-  16 3.12  11 3.21   4 3.37
  29  0.496  0.250  0.000-  10 3.12  15 3.21   1 3.38
  30  0.509  0.249  0.507-   6 2.97  15 3.05   8 3.06
  31  0.510  0.749  0.007-   1 2.97  14 3.06   2 3.06
  32  0.496  0.749  0.500-  16 3.12  14 3.20   6 3.40
  33  0.010  0.001  0.244-   3 2.98   9 3.05   5 3.06
  34  0.996  0.001  0.750-  12 3.12   9 3.21   4 3.38
  35  0.996  0.501  0.251-  13 3.12  11 3.21   3 3.38
  36  0.010  0.501  0.744-   4 2.98  11 3.05   7 3.07
  37  0.490  0.993  0.251-   6 2.97  14 3.06   5 3.06
  38  0.504  0.000  0.751-  12 3.12  15 3.21   6 3.39
  39  0.504  0.500  0.251-  13 3.12  14 3.20   1 3.39
  40  0.490  0.493  0.751-   1 2.97  15 3.06   7 3.06
  41  0.239  0.248  0.244-   5 2.97   3 3.05  10 3.06
  42  0.254  0.250  0.751-  15 3.12  10 3.20   7 3.38
  43  0.254  0.750  0.251-  14 3.12  16 3.20   5 3.38
  44  0.239  0.749  0.744-   7 2.97   4 3.06  16 3.06
  45  0.761  0.257  0.252-   8 2.97   3 3.05  13 3.06
  46  0.746  0.250  0.750-  15 3.12  12 3.20   8 3.38
  47  0.746  0.750  0.251-  14 3.12  13 3.20   2 3.39
  48  0.760  0.757  0.751-   2 2.97   4 3.05  12 3.06
 
 -----------------------------------------------------------------------------
|                                                                             |
|           W    W    AA    RRRRR   N    N  II  N    N   GGGG   !!!           |
|           W    W   A  A   R    R  NN   N  II  NN   N  G    G  !!!           |
|           W    W  A    A  R    R  N N  N  II  N N  N  G       !!!           |
|           W WW W  AAAAAA  RRRRR   N  N N  II  N  N N  G  GGG   !            |
|           WW  WW  A    A  R   R   N   NN  II  N   NN  G    G                |
|           W    W  A    A  R    R  N    N  II  N    N   GGGG   !!!           |
|                                                                             |
|     The determination of the symmetry of your systems shows a strong        |
|     dependence on the tolerance parameter SYMPREC. This is often the        |
|     result of "noise" in the structural parameters (lattice vectors         |
|     and/or ionic positions). Set NWRITE=3 for more details.                 |
|                                                                             |
 -----------------------------------------------------------------------------

  LATTYP: Found a base centered monoclinic cell.
 ALAT       =    17.9356547699
 B/A-ratio  =     0.9998349184
 C/A-ratio  =     2.1214824441
 COS(beta)  =    -0.9428083284
  
  Lattice vectors:
  
 A1 = (  12.6813814087,   0.0010282021,   0.0011932384)
 A2 = (   0.0009003125,   0.0010414974,  12.6813710956)
 A3 = ( -25.3653556733, -12.6876086193, -25.3661046953)


Analysis of symmetry for initial positions (statically):
=====================================================================
 Subroutine PRICEL returns:
 Original cell was already a primitive cell.
 

 Routine SETGRP: Setting up the symmetry group for a 
 base centered monoclinic supercell.


 Subroutine GETGRP returns: Found  1 space group operations
 (whereof  1 operations were pure point group operations)
 out of a pool of  4 trial point group operations.


The static configuration has the point symmetry C_1 .


Analysis of symmetry for dynamics (positions and initial velocities):
=====================================================================
 Subroutine PRICEL returns:
 Original cell was already a primitive cell.
 

 Routine SETGRP: Setting up the symmetry group for a 
 base centered monoclinic supercell.


 Subroutine GETGRP returns: Found  1 space group operations
 (whereof  1 operations were pure point group operations)
 out of a pool of  4 trial point group operations.


The dynamic configuration has the point symmetry C_1 .


 Subroutine INISYM returns: Found  1 space group operations
 (whereof  1 operations are pure point group operations),
 and found     1 'primitive' translations


----------------------------------------------------------------------------------------

                                     Primitive cell                                     

  volume of cell :    2039.7213

  direct lattice vectors                    reciprocal lattice vectors
    12.681381409  0.001028202  0.001193238     0.078855763 -0.000004925 -0.000005598
     0.000792231 12.683469220  0.000976027    -0.000006392  0.078842783 -0.000006475
     0.000900312  0.001041497 12.681371096    -0.000007419 -0.000006068  0.078855828

  length of vectors
    12.681381507 12.683469283 12.681371170     0.078855764  0.078842784  0.078855828

  position of ions in fractional coordinates (direct lattice)
     0.500086568  0.515663054  0.984252868
     0.749108219  0.735389251  0.984194140
     0.000295818  0.234996872  0.265457272
     0.999231610  0.734965587  0.764953481
     0.249682863  0.015316430  0.265049514
     0.499487555  0.016560481  0.484131363
     0.250136808  0.516196548  0.765283800
     0.749520575  0.235075712  0.484406534
     0.999809580  0.997132093  0.003193862
     0.249989975  0.252705287  0.003067229
     0.999892458  0.497027753  0.503366839
     0.749683301  0.997351500  0.747559576
     0.750118586  0.497474477  0.247663137
     0.499894906  0.752567008  0.247793405
     0.499817199  0.252774938  0.747543987
     0.249847023  0.752679933  0.503144067
     0.245746507  0.999834694  0.000239479
     0.260373984  0.993234804  0.498478923
     0.260272155  0.493134698  0.998530292
     0.245833327  0.499994405  0.500612877
     0.753924896  0.000406348  0.000389399
     0.739021314  0.001890619  0.507047194
     0.739726786  0.501987600  0.007175358
     0.754053911  0.499795751  0.500497061
     0.004213812  0.249898737  0.999482284
     0.990212363  0.256587898  0.498917770
     0.989465644  0.756657184  0.998619928
     0.003950617  0.749880843  0.499580545
     0.495939893  0.249766681  0.000271738
     0.509368036  0.249298700  0.506927362
     0.509614904  0.748639619  0.007084292
     0.495661156  0.748884041  0.500375578
     0.009671716  0.001405005  0.243789029
     0.995508670  0.001090208  0.750498318
     0.995902502  0.501226366  0.250614267
     0.009662660  0.501493158  0.743896536
     0.489959238  0.993202865  0.251420985
     0.503806658  0.000132843  0.750919601
     0.504179635  0.499996150  0.251130030
     0.490220769  0.493432226  0.751313640
     0.239427282  0.248457365  0.243795357
     0.253979054  0.249906739  0.750583268
     0.253974143  0.749604758  0.250658940
     0.238895163  0.748818709  0.743874394
     0.760951442  0.256713999  0.251707247
     0.745773642  0.249732263  0.750283316
     0.745764178  0.749884389  0.250847178
     0.760084729  0.756624842  0.751417856

  ion indices of the primitive-cell ions
   primitive index   ion index
                 1           1
                 2           2
                 3           3
                 4           4
                 5           5
                 6           6
                 7           7
                 8           8
                 9           9
                10          10
                11          11
                12          12
                13          13
                14          14
                15          15
                16          16
                17          17
                18          18
                19          19
                20          20
                21          21
                22          22
                23          23
                24          24
                25          25
                26          26
                27          27
                28          28
                29          29
                30          30
                31          31
                32          32
                33          33
                34          34
                35          35
                36          36
                37          37
                38          38
                39          39
                40          40
                41          41
                42          42
                43          43
                44          44
                45          45
                46          46
                47          47
                48          48

----------------------------------------------------------------------------------------

 
 
 KPOINTS: agbii                                   

Automatic generation of k-mesh.
Space group operators:
 irot       det(A)        alpha          n_x          n_y          n_z        tau_x        tau_y        tau_z
    1     1.000000     0.000000     1.000000     0.000000     0.000000     0.000000     0.000000     0.000000
 TETIRR: Found    192 inequivalent tetrahedra from      384
 
 Subroutine IBZKPT returns following result:
 ===========================================
 
 Found     36 irreducible k-points:
 
 Following reciprocal coordinates:
            Coordinates               Weight
  0.000000  0.000000  0.000000      1.000000
  0.250000  0.000000  0.000000      2.000000
 -0.000000  0.000000 -0.250000      2.000000
  0.500000  0.000000 -0.000000      1.000000
  0.000000  0.000000  0.500000      1.000000
  0.000000  0.250000 -0.000000      2.000000
  0.250000  0.250000  0.000000      2.000000
 -0.000000 -0.250000 -0.250000      2.000000
  0.500000  0.250000 -0.000000      2.000000
  0.000000 -0.250000  0.500000      2.000000
 -0.250000  0.250000  0.000000      2.000000
  0.000000 -0.250000  0.250000      2.000000
  0.000000  0.500000 -0.000000      1.000000
  0.250000  0.500000  0.000000      2.000000
  0.000000  0.500000 -0.250000      2.000000
  0.500000  0.500000 -0.000000      1.000000
  0.000000  0.500000  0.500000      1.000000
  0.250000 -0.000000  0.250000      2.000000
  0.500000  0.000000  0.250000      2.000000
 -0.250000  0.000000  0.500000      2.000000
 -0.250000  0.000000  0.250000      2.000000
  0.250000  0.250000  0.250000      2.000000
  0.500000  0.250000  0.250000      2.000000
 -0.250000 -0.250000  0.500000      2.000000
 -0.250000  0.250000  0.250000      2.000000
 -0.250000 -0.250000  0.250000      2.000000
  0.250000  0.500000  0.250000      2.000000
  0.500000  0.500000  0.250000      2.000000
 -0.250000  0.500000  0.500000      2.000000
 -0.250000  0.500000  0.250000      2.000000
  0.250000 -0.250000  0.250000      2.000000
  0.500000 -0.250000  0.250000      2.000000
 -0.250000  0.250000  0.500000      2.000000
  0.500000 -0.000000  0.500000      1.000000
  0.500000  0.250000  0.500000      2.000000
  0.500000  0.500000  0.500000      1.000000
 
 Following cartesian coordinates:
            Coordinates               Weight
  0.000000  0.000000  0.000000      1.000000
  0.019714 -0.000001 -0.000001      2.000000
  0.000002  0.000002 -0.019714      2.000000
  0.039428 -0.000002 -0.000003      1.000000
 -0.000004 -0.000003  0.039428      1.000000
 -0.000002  0.019711 -0.000002      2.000000
  0.019712  0.019709 -0.000003      2.000000
  0.000003 -0.019709 -0.019712      2.000000
  0.039426  0.019708 -0.000004      2.000000
 -0.000002 -0.019714  0.039430      2.000000
 -0.019716  0.019712 -0.000000      2.000000
 -0.000000 -0.019712  0.019716      2.000000
 -0.000003  0.039421 -0.000003      1.000000
  0.019711  0.039420 -0.000005      2.000000
 -0.000001  0.039423 -0.019717      2.000000
  0.039425  0.039419 -0.000006      1.000000
 -0.000007  0.039418  0.039425      1.000000
  0.019712 -0.000003  0.019713      2.000000
  0.039426 -0.000004  0.019711      2.000000
 -0.019718 -0.000002  0.039429      2.000000
 -0.019716 -0.000000  0.019715      2.000000
  0.019710  0.019708  0.019711      2.000000
  0.039424  0.019707  0.019710      2.000000
 -0.019716 -0.019712  0.039431      2.000000
 -0.019717  0.019710  0.019714      2.000000
 -0.019714 -0.019711  0.019717      2.000000
  0.019709  0.039419  0.019709      2.000000
  0.039423  0.039417  0.019708      2.000000
 -0.019721  0.039420  0.039426      2.000000
 -0.019719  0.039421  0.019712      2.000000
  0.019714 -0.019713  0.019714      2.000000
  0.039428 -0.019715  0.019713      2.000000
 -0.019719  0.019709  0.039428      2.000000
  0.039424 -0.000005  0.039425      1.000000
  0.039423  0.019705  0.039423      2.000000
  0.039421  0.039416  0.039422      1.000000
 


--------------------------------------------------------------------------------------------------------




 Dimension of arrays:
   k-points           NKPTS =     36   k-points in BZ     NKDIM =     36   number of bands    NBANDS=    211
   number of dos      NEDOS =   3000   number of ions     NIONS =     48
   non local maximal  LDIM  =      6   non local SUM 2l+1 LMDIM =     18
   total plane-waves  NPLWV = 125000
   max r-space proj   IRMAX =      1   max aug-charges    IRDMAX=   6036
   dimension x,y,z NGX =    50 NGY =   50 NGZ =   50
   dimension x,y,z NGXF=   100 NGYF=  100 NGZF=  100
   support grid    NGXF=   100 NGYF=  100 NGZF=  100
   ions per type =               8   8  32
   NGX,Y,Z   is equivalent  to a cutoff of   6.55,  6.55,  6.55 a.u.
   NGXF,Y,Z  is equivalent  to a cutoff of  13.11, 13.11, 13.11 a.u.

 SYSTEM =  unknown system                          
 POSCAR =  Generation Seed Number                  

 Startparameter for this run:
   NWRITE =      2    write-flag & timer
   PREC   = normal    normal or accurate (medium, high low for compatibility)
   ISTART =      1    job   : 0-new  1-cont  2-samecut
   ICHARG =      1    charge: 1-file 2-atom 10-const
   ISPIN  =      1    spin polarized calculation?
   LNONCOLLINEAR =      F non collinear calculations
   LSORBIT =      F    spin-orbit coupling
   INIWAV =      1    electr: 0-lowe 1-rand  2-diag
   LASPH  =      F    aspherical Exc in radial PAW
   METAGGA=      F    non-selfconsistent MetaGGA calc.

 Electronic Relaxation 1
   ENCUT  =  250.0 eV  18.37 Ry    4.29 a.u.  16.35 16.35 16.35*2*pi/ulx,y,z
   ENINI  =  250.0     initial cutoff
   ENAUG  =  412.5 eV  augmentation charge cutoff
   NELM   =     60;   NELMIN=  2; NELMDL=  0     # of ELM steps 
   EDIFF  = 0.1E-05   stopping-criterion for ELM
   LREAL  =      F    real-space projection
   NLSPLINE    = F    spline interpolate recip. space projectors
   LCOMPAT=      F    compatible to vasp.4.4
   GGA_COMPAT  = T    GGA compatible to vasp.4.4-vasp.4.6
   LMAXPAW     = -100 max onsite density
   LMAXMIX     =    4 max onsite mixed and CHGCAR
   VOSKOWN=      0    Vosko Wilk Nusair interpolation
   ROPT   =    0.00000   0.00000   0.00000
 Ionic relaxation
   EDIFFG = -.1E-01   stopping-criterion for IOM
   NSW    =      0    number of steps for IOM
   NBLOCK =      1;   KBLOCK =      1    inner block; outer block 
   IBRION =     -1    ionic relax: 0-MD 1-quasi-New 2-CG
   NFREE  =      0    steps in history (QN), initial steepest desc. (CG)
   ISIF   =     -1    stress and relaxation
   IWAVPR =     10    prediction:  0-non 1-charg 2-wave 3-comb
   ISYM   =      2    0-nonsym 1-usesym 2-fastsym
   LCORR  =      T    Harris-Foulkes like correction to forces

   POTIM  = 0.5000    time-step for ionic-motion
   TEIN   =    0.0    initial temperature
   TEBEG  =    0.0;   TEEND  =   0.0 temperature during run
   SMASS  =  -3.00    Nose mass-parameter (am)
   estimated Nose-frequenzy (Omega)   =  0.10E-29 period in steps = 0.13E+47 mass=  -0.368E-26a.u.
   SCALEE = 1.0000    scale energy and forces
   NPACO  =    256;   APACO  = 16.0  distance and # of slots for P.C.
   PSTRESS=    0.0 pullay stress

  Mass of Ions in am
   POMASS = 107.87208.98126.90
  Ionic Valenz
   ZVAL   =  11.00  5.00  7.00
  Atomic Wigner-Seitz radii
   RWIGS  =  -1.00 -1.00 -1.00
  virtual crystal weights 
   VCA    =   1.00  1.00  1.00
   NELECT =     352.0000    total number of electrons
   NUPDOWN=      -1.0000    fix difference up-down

 DOS related values:
   EMIN   =  10.00;   EMAX   =-10.00  energy-range for DOS
   EFERMI =   0.00
   ISMEAR =    -5;   SIGMA  =   0.20  broadening in eV -4-tet -1-fermi 0-gaus

 Electronic relaxation 2 (details)
   IALGO  =     38    algorithm
   LDIAG  =      T    sub-space diagonalisation (order eigenvalues)
   LSUBROT=      F    optimize rotation matrix (better conditioning)
   TURBO    =      0    0=normal 1=particle mesh
   IRESTART =      0    0=no restart 2=restart with 2 vectors
   NREBOOT  =      0    no. of reboots
   NMIN     =      0    reboot dimension
   EREF     =   0.00    reference energy to select bands
   IMIX   =      4    mixing-type and parameters
     AMIX     =   0.40;   BMIX     =  1.00
     AMIX_MAG =   1.60;   BMIX_MAG =  1.00
     AMIN     =   0.10
     WC   =   100.;   INIMIX=   1;  MIXPRE=   1;  MAXMIX= -45

 Intra band minimization:
   WEIMIN = 0.0000     energy-eigenvalue tresh-hold
   EBREAK =  0.12E-08  absolut break condition
   DEPER  =   0.30     relativ break condition  

   TIME   =   0.40     timestep for ELM

  volume/ion in A,a.u.               =      42.49       286.76
  Fermi-wavevector in a.u.,A,eV,Ry     =   0.911448  1.722388 11.302880  0.830738
  Thomas-Fermi vector in A             =   2.035729
 
 Write flags
   LWAVE        =      T    write WAVECAR
   LDOWNSAMPLE  =      F    k-point downsampling of WAVECAR
   LCHARG       =      T    write CHGCAR
   LVTOT        =      F    write LOCPOT, total local potential
   LVHAR        =      F    write LOCPOT, Hartree potential only
   LELF         =      F    write electronic localiz. function (ELF)
   LORBIT       =     10    0 simple, 1 ext, 2 COOP (PROOUT), +10 PAW based schemes


 Dipole corrections
   LMONO  =      F    monopole corrections only (constant potential shift)
   LDIPOL =      F    correct potential (dipole corrections)
   IDIPOL =      0    1-x, 2-y, 3-z, 4-all directions 
   EPSILON=  1.0000000 bulk dielectric constant

 Exchange correlation treatment:
   GGA     =    --    GGA type
   LEXCH   =     8    internal setting for exchange type
   VOSKOWN=      0    Vosko Wilk Nusair interpolation
   LHFCALC =     F    Hartree Fock is set to
   LHFONE  =     F    Hartree Fock one center treatment
   AEXX    =    0.0000 exact exchange contribution

 Linear response parameters
   LEPSILON=     F    determine dielectric tensor
   LRPA    =     F    only Hartree local field effects (RPA)
   LNABLA  =     F    use nabla operator in PAW spheres
   LVEL    =     F    velocity operator in full k-point grid
   LINTERFAST=   F  fast interpolation
   KINTER  =     0    interpolate to denser k-point grid
   CSHIFT  =0.1000    complex shift for real part using Kramers Kronig
   OMEGAMAX=  -1.0    maximum frequency
   DEG_THRESHOLD= 0.2000000E-02 threshold for treating states as degnerate
   RTIME   =   -0.100 relaxation time in fs
  (WPLASMAI=    0.000 imaginary part of plasma frequency in eV, 0.658/RTIME)
   DFIELD  = 0.0000000 0.0000000 0.0000000 field for delta impulse in time
 
 Orbital magnetization related:
   ORBITALMAG=     F  switch on orbital magnetization
   LCHIMAG   =     F  perturbation theory with respect to B field
   DQ        =  0.001000  dq finite difference perturbation B field
   LLRAUG    =     F  two centre corrections for induced B field



--------------------------------------------------------------------------------------------------------


 Static calculation
 charge density and potential will be updated during run
 non-spin polarized calculation
 Variant of blocked Davidson
 Davidson routine will perform the subspace rotation
 perform sub-space diagonalisation
    after iterative eigenvector-optimisation
 modified Broyden-mixing scheme, WC =      100.0
 initial mixing is a Kerker type mixing with AMIX =  0.4000 and BMIX =      1.0000
 Hartree-type preconditioning will be used
 using additional bands           35
 reciprocal scheme for non local part
 use partial core corrections
 calculate Harris-corrections to forces 
   (improved forces if not selfconsistent)
 use gradient corrections 
 use of overlap-Matrix (Vanderbilt PP)
 Fermi weights with tetrahedron method with Bloechl corrections


--------------------------------------------------------------------------------------------------------


  energy-cutoff  :      250.00
  volume of cell :     2039.72
      direct lattice vectors                 reciprocal lattice vectors
    12.681381409  0.001028202  0.001193238     0.078855763 -0.000004925 -0.000005598
     0.000792231 12.683469220  0.000976027    -0.000006392  0.078842783 -0.000006475
     0.000900312  0.001041497 12.681371096    -0.000007419 -0.000006068  0.078855828

  length of vectors
    12.681381507 12.683469283 12.681371170     0.078855764  0.078842784  0.078855828


 
 old parameters found on file WAVECAR:
  energy-cutoff  :      250.00
  volume of cell :     2039.72
      direct lattice vectors                 reciprocal lattice vectors
    12.681381409  0.001028202  0.001193238     0.078855763 -0.000004925 -0.000005598
     0.000792231 12.683469220  0.000976027    -0.000006392  0.078842783 -0.000006475
     0.000900312  0.001041497 12.681371096    -0.000007419 -0.000006068  0.078855828

  length of vectors

 
 k-points in units of 2pi/SCALE and weight: agbii                                   
   0.00000000  0.00000000  0.00000000       0.016
   0.01971394 -0.00000123 -0.00000140       0.031
   0.00000185  0.00000152 -0.01971396       0.031
   0.03942788 -0.00000246 -0.00000280       0.016
  -0.00000371 -0.00000303  0.03942791       0.016
  -0.00000160  0.01971070 -0.00000162       0.031
   0.01971234  0.01970946 -0.00000302       0.031
   0.00000345 -0.01970918 -0.01971234       0.031
   0.03942628  0.01970823 -0.00000442       0.031
  -0.00000211 -0.01971373  0.03942953       0.031
  -0.01971554  0.01971193 -0.00000022       0.031
  -0.00000026 -0.01971221  0.01971558       0.031
  -0.00000320  0.03942139 -0.00000324       0.016
   0.01971074  0.03942016 -0.00000464       0.031
  -0.00000134  0.03942291 -0.01971719       0.031
   0.03942469  0.03941893 -0.00000604       0.016
  -0.00000691  0.03941836  0.03942468       0.016
   0.01971209 -0.00000275  0.01971256       0.031
   0.03942603 -0.00000398  0.01971116       0.031
  -0.01971765 -0.00000180  0.03942931       0.031
  -0.01971580 -0.00000029  0.01971536       0.031
   0.01971049  0.01970795  0.01971094       0.031
   0.03942443  0.01970672  0.01970954       0.031
  -0.01971605 -0.01971250  0.03943093       0.031
  -0.01971739  0.01971041  0.01971374       0.031
  -0.01971420 -0.01971098  0.01971698       0.031
   0.01970889  0.03941864  0.01970932       0.031
   0.03942283  0.03941741  0.01970792       0.031
  -0.01972085  0.03941959  0.03942608       0.031
  -0.01971899  0.03942111  0.01971212       0.031
   0.01971368 -0.01971344  0.01971418       0.031
   0.03942762 -0.01971468  0.01971278       0.031
  -0.01971925  0.01970889  0.03942769       0.031
   0.03942417 -0.00000550  0.03942511       0.016
   0.03942257  0.01970520  0.03942350       0.031
   0.03942098  0.03941590  0.03942188       0.016
 
 k-points in reciprocal lattice and weights: agbii                                   
   0.00000000  0.00000000  0.00000000       0.016
   0.25000000  0.00000000  0.00000000       0.031
  -0.00000000  0.00000000 -0.25000000       0.031
   0.50000000  0.00000000 -0.00000000       0.016
   0.00000000  0.00000000  0.50000000       0.016
   0.00000000  0.25000000 -0.00000000       0.031
   0.25000000  0.25000000  0.00000000       0.031
  -0.00000000 -0.25000000 -0.25000000       0.031
   0.50000000  0.25000000 -0.00000000       0.031
   0.00000000 -0.25000000  0.50000000       0.031
  -0.25000000  0.25000000  0.00000000       0.031
   0.00000000 -0.25000000  0.25000000       0.031
   0.00000000  0.50000000 -0.00000000       0.016
   0.25000000  0.50000000  0.00000000       0.031
   0.00000000  0.50000000 -0.25000000       0.031
   0.50000000  0.50000000 -0.00000000       0.016
   0.00000000  0.50000000  0.50000000       0.016
   0.25000000 -0.00000000  0.25000000       0.031
   0.50000000  0.00000000  0.25000000       0.031
  -0.25000000  0.00000000  0.50000000       0.031
  -0.25000000  0.00000000  0.25000000       0.031
   0.25000000  0.25000000  0.25000000       0.031
   0.50000000  0.25000000  0.25000000       0.031
  -0.25000000 -0.25000000  0.50000000       0.031
  -0.25000000  0.25000000  0.25000000       0.031
  -0.25000000 -0.25000000  0.25000000       0.031
   0.25000000  0.50000000  0.25000000       0.031
   0.50000000  0.50000000  0.25000000       0.031
  -0.25000000  0.50000000  0.50000000       0.031
  -0.25000000  0.50000000  0.25000000       0.031
   0.25000000 -0.25000000  0.25000000       0.031
   0.50000000 -0.25000000  0.25000000       0.031
  -0.25000000  0.25000000  0.50000000       0.031
   0.50000000 -0.00000000  0.50000000       0.016
   0.50000000  0.25000000  0.50000000       0.031
   0.50000000  0.50000000  0.50000000       0.016
 
 position of ions in fractional coordinates (direct lattice) 
   0.50008657  0.51566305  0.98425287
   0.74910822  0.73538925  0.98419414
   0.00029582  0.23499687  0.26545727
   0.99923161  0.73496559  0.76495348
   0.24968286  0.01531643  0.26504951
   0.49948756  0.01656048  0.48413136
   0.25013681  0.51619655  0.76528380
   0.74952057  0.23507571  0.48440653
   0.99980958  0.99713209  0.00319386
   0.24998998  0.25270529  0.00306723
   0.99989246  0.49702775  0.50336684
   0.74968330  0.99735150  0.74755958
   0.75011859  0.49747448  0.24766314
   0.49989491  0.75256701  0.24779340
   0.49981720  0.25277494  0.74754399
   0.24984702  0.75267993  0.50314407
   0.24574651  0.99983469  0.00023948
   0.26037398  0.99323480  0.49847892
   0.26027216  0.49313470  0.99853029
   0.24583333  0.49999441  0.50061288
   0.75392490  0.00040635  0.00038940
   0.73902131  0.00189062  0.50704719
   0.73972679  0.50198760  0.00717536
   0.75405391  0.49979575  0.50049706
   0.00421381  0.24989874  0.99948228
   0.99021236  0.25658790  0.49891777
   0.98946564  0.75665718  0.99861993
   0.00395062  0.74988084  0.49958054
   0.49593989  0.24976668  0.00027174
   0.50936804  0.24929870  0.50692736
   0.50961490  0.74863962  0.00708429
   0.49566116  0.74888404  0.50037558
   0.00967172  0.00140501  0.24378903
   0.99550867  0.00109021  0.75049832
   0.99590250  0.50122637  0.25061427
   0.00966266  0.50149316  0.74389654
   0.48995924  0.99320287  0.25142098
   0.50380666  0.00013284  0.75091960
   0.50417964  0.49999615  0.25113003
   0.49022077  0.49343223  0.75131364
   0.23942728  0.24845737  0.24379536
   0.25397905  0.24990674  0.75058327
   0.25397414  0.74960476  0.25065894
   0.23889516  0.74881871  0.74387439
   0.76095144  0.25671400  0.25170725
   0.74577364  0.24973226  0.75028332
   0.74576418  0.74988439  0.25084718
   0.76008473  0.75662484  0.75141786
 
 position of ions in cartesian coordinates  (Angst):
   6.34308317  6.54193576 12.48277590
   9.50119572  9.32908221 12.48254274
   0.00417655  2.98085237  3.36659190
  12.67290812  9.32373751  9.70256863
   3.16657437  0.19479824  3.36150413
   6.33464119  0.21106215  6.14006164
   3.17317821  6.54821726  9.70565016
   9.50557863  2.98285072  6.14406282
  12.67975946 12.64812554  0.04266879
   3.17042119  3.20543996  0.03944161
  12.68086457  6.30558856  6.38505991
   9.50848305 12.65142646  9.48194839
   9.51315698  6.31073144  3.14208876
   6.34017726  9.54593255  3.14369114
   6.33924581  3.20735563  9.48072582
   3.16945467  9.54737368  6.38158940
   3.11719750 12.68162549  0.00430603
   3.30313746 12.59844995  6.32267631
   3.30190014  6.25596634 12.66352506
   3.11835300  6.34243780  6.34923902
   9.56080983  0.00592950  0.00583813
   9.37226916  0.02526756  6.43093730
   9.38116166  6.36771234  0.09236601
   9.56329181  6.34044061  6.34837654
   0.05453479  3.17062822 12.67505468
  12.55791311  3.25596246  6.32839338
  12.54928974  9.59909554 12.66578907
   0.05114314  9.51161496  6.33610290
   6.28940106  3.16841822  0.00428156
   6.46014424  3.16302409  6.42938512
   6.46322045  9.49587893  0.09117733
   6.28671196  9.49947847  6.34677076
   0.12287131  0.01808419  3.09159206
  12.62510168  0.01563285  9.51853662
  12.63004219  6.35857419  3.17981008
   0.12360292  6.36145774  9.43412903
   6.21437318 12.59802360  3.18991684
   6.38964055  0.00298500  9.52329141
   6.39431646  6.34246573  3.18576272
   6.21774387  6.25971898  9.52875364
   3.03668501  3.15180143  3.09218758
   3.22167899  3.17072730  9.51897193
   3.22156251  9.50811107  3.17973372
   3.03078363  9.49863942  9.43436316
   9.65034546  3.25706867  3.19315156
   9.45831334  3.16901970  9.51575479
   9.45813991  9.51216361  3.18270794
   9.64020029  9.59819202  9.53065413
 


--------------------------------------------------------------------------------------------------------


 k-point   1 :   0.0000 0.0000 0.0000  plane waves:   18325
 k-point   2 :   0.2500 0.0000 0.0000  plane waves:   18309
 k-point   3 :  -0.0000 0.0000-0.2500  plane waves:   18309
 k-point   4 :   0.5000 0.0000-0.0000  plane waves:   18368
 k-point   5 :   0.0000 0.0000 0.5000  plane waves:   18366
 k-point   6 :   0.0000 0.2500-0.0000  plane waves:   18309
 k-point   7 :   0.2500 0.2500 0.0000  plane waves:   18355
 k-point   8 :  -0.0000-0.2500-0.2500  plane waves:   18355
 k-point   9 :   0.5000 0.2500-0.0000  plane waves:   18304
 k-point  10 :   0.0000-0.2500 0.5000  plane waves:   18304
 k-point  11 :  -0.2500 0.2500 0.0000  plane waves:   18355
 k-point  12 :   0.0000-0.2500 0.2500  plane waves:   18355
 k-point  13 :   0.0000 0.5000-0.0000  plane waves:   18362
 k-point  14 :   0.2500 0.5000 0.0000  plane waves:   18302
 k-point  15 :   0.0000 0.5000-0.2500  plane waves:   18301
 k-point  16 :   0.5000 0.5000-0.0000  plane waves:   18256
 k-point  17 :   0.0000 0.5000 0.5000  plane waves:   18256
 k-point  18 :   0.2500-0.0000 0.2500  plane waves:   18355
 k-point  19 :   0.5000 0.0000 0.2500  plane waves:   18302
 k-point  20 :  -0.2500 0.0000 0.5000  plane waves:   18302
 k-point  21 :  -0.2500 0.0000 0.2500  plane waves:   18355
 k-point  22 :   0.2500 0.2500 0.2500  plane waves:   18331
 k-point  23 :   0.5000 0.2500 0.2500  plane waves:   18296
 k-point  24 :  -0.2500-0.2500 0.5000  plane waves:   18295
 k-point  25 :  -0.2500 0.2500 0.2500  plane waves:   18331
 k-point  26 :  -0.2500-0.2500 0.2500  plane waves:   18331
 k-point  27 :   0.2500 0.5000 0.2500  plane waves:   18292
 k-point  28 :   0.5000 0.5000 0.2500  plane waves:   18276
 k-point  29 :  -0.2500 0.5000 0.5000  plane waves:   18276
 k-point  30 :  -0.2500 0.5000 0.2500  plane waves:   18292
 k-point  31 :   0.2500-0.2500 0.2500  plane waves:   18331
 k-point  32 :   0.5000-0.2500 0.2500  plane waves:   18296
 k-point  33 :  -0.2500 0.2500 0.5000  plane waves:   18297
 k-point  34 :   0.5000-0.0000 0.5000  plane waves:   18256
 k-point  35 :   0.5000 0.2500 0.5000  plane waves:   18276
 k-point  36 :   0.5000 0.5000 0.5000  plane waves:   18336

 maximum and minimum number of plane-waves per node :     18368    18256

 maximum number of plane-waves:     18368
 maximum index in each direction: 
   IXMAX=   16   IYMAX=   16   IZMAX=   16
   IXMIN=  -16   IYMIN=  -16   IZMIN=  -16


 serial   3D FFT for wavefunctions
 parallel 3D FFT for charge:
    minimum data exchange during FFTs selected (reduces bandwidth)


 total amount of memory used by VASP MPI-rank0  2748304. kBytes
=======================================================================

   base      :      30000. kBytes
   nonl-proj :     299765. kBytes
   fftplans  :      34720. kBytes
   grid      :      70000. kBytes
   one-center:        746. kBytes
   wavefun   :    2313073. kBytes
 
     INWAV:  cpu time    4.5377: real time    4.8629
 Broyden mixing: mesh for mixing (old mesh)
   NGX = 33   NGY = 33   NGZ = 33
  (NGX  =100   NGY  =100   NGZ  =100)
  gives a total of  35937 points

 initial charge density was supplied:
 number of electron     352.0000212 magnetization 
 keeping initial charge density in first step


--------------------------------------------------------------------------------------------------------


 Maximum index for augmentation-charges         5667 (set IRDMAX)


--------------------------------------------------------------------------------------------------------


 First call to EWALD:  gamma=   0.140
 Maximum number of real-space cells 3x 3x 3
 Maximum number of reciprocal cells 3x 3x 3

    FEWALD:  cpu time    0.0026: real time    0.0026


--------------------------------------- Iteration      1(   1)  ---------------------------------------


    POTLOK:  cpu time    0.5800: real time    0.5955
    SETDIJ:  cpu time    0.0273: real time    0.0273
     EDDAV:  cpu time   57.7575: real time   57.7574
 BZINTS: Fermi energy:    1.983474;  352.000000 electrons
         Band energy:-0.731337E+03;  BLOECHL correction:    0.000000
       DOS:  cpu time    0.0572: real time    0.0573
    CHARGE:  cpu time    1.2068: real time    1.2068
    MIXING:  cpu time    0.0269: real time    0.0269
    --------------------------------------------
      LOOP:  cpu time   59.6558: real time   59.6713

 eigenvalue-minimisations  : 10605
 total energy-change (2. order) :-0.1201173E+03  (-0.3016714E-06)
 number of electron     352.0000212 magnetization 
 augmentation part      -23.1135423 magnetization 

 Broyden mixing:
  rms(total) = 0.63824E-03    rms(broyden)= 0.63820E-03
  rms(prec ) = 0.72883E-03
  weight for this iteration     100.00

 Free energy of the ion-electron system (eV)
  ---------------------------------------------------
  alpha Z        PSCENC =       228.31469641
  Ewald energy   TEWEN  =    -13992.98701243
  -Hartree energ DENC   =     -5986.36554384
  -exchange      EXHF   =         0.00000000
  -V(xc)+E(xc)   XCENC  =     -1392.21022173
  PAW double counting   =     22647.16509322   -20504.42114486
  entropy T*S    EENTRO =         0.00000000
  eigenvalues    EBANDS =      -731.33687704
  atomic energy  EATOM  =     19611.72375700
  Solvation  Ediel_sol  =         0.00000000
  ---------------------------------------------------
  free energy    TOTEN  =      -120.11725326 eV

  energy without entropy =     -120.11725326  energy(sigma->0) =     -120.11725326


--------------------------------------------------------------------------------------------------------




--------------------------------------- Iteration      1(   2)  ---------------------------------------


    POTLOK:  cpu time    0.5653: real time    0.5654
    SETDIJ:  cpu time    0.0504: real time    0.0504
     EDDAV:  cpu time   49.3288: real time   49.3286
 BZINTS: Fermi energy:    1.983679;  352.000000 electrons
         Band energy:-0.731331E+03;  BLOECHL correction:    0.000000
       DOS:  cpu time    0.0525: real time    0.0525
    --------------------------------------------
      LOOP:  cpu time   49.9969: real time   49.9967

 eigenvalue-minimisations  :  8202
 total energy-change (2. order) : 0.4118883E-06  (-0.1119890E-06)
 number of electron     352.0000212 magnetization 
 augmentation part      -23.1135423 magnetization 

 Free energy of the ion-electron system (eV)
  ---------------------------------------------------
  alpha Z        PSCENC =       228.31469641
  Ewald energy   TEWEN  =    -13992.98701243
  -Hartree energ DENC   =     -5986.37098794
  -exchange      EXHF   =         0.00000000
  -V(xc)+E(xc)   XCENC  =     -1392.20983349
  PAW double counting   =     22646.72424451   -20503.98098553
  entropy T*S    EENTRO =         0.00000000
  eigenvalues    EBANDS =      -731.33113137
  atomic energy  EATOM  =     19611.72375700
  Solvation  Ediel_sol  =         0.00000000
  ---------------------------------------------------
  free energy    TOTEN  =      -120.11725285 eV

  energy without entropy =     -120.11725285  energy(sigma->0) =     -120.11725285


--------------------------------------------------------------------------------------------------------




 average (electrostatic) potential at core
  the test charge radii are     1.1249  1.4024  1.1875
  (the norm of the test charge is              1.0000)
       1 -75.0179       2 -75.0170       3 -75.0140       4 -75.0129       5 -75.0147
       6 -75.0208       7 -75.0158       8 -75.0162       9 -65.3992      10 -65.4011
      11 -65.3984      12 -65.4018      13 -65.4007      14 -65.4011      15 -65.4025
      16 -65.4010      17 -93.1527      18 -93.0810      19 -93.0801      20 -93.1551
      21 -93.1537      22 -93.0821      23 -93.0790      24 -93.1549      25 -93.1490
      26 -93.0711      27 -93.0705      28 -93.1480      29 -93.1502      30 -93.0809
      31 -93.0815      32 -93.1461      33 -93.0725      34 -93.1494      35 -93.1480
      36 -93.0700      37 -93.0781      38 -93.1490      39 -93.1468      40 -93.0787
      41 -93.0817      42 -93.1549      43 -93.1554      44 -93.0813      45 -93.0815
      46 -93.1558      47 -93.1533      48 -93.0847
 
 
 
 E-fermi :   1.9837     XC(G=0):  -7.8542     alpha+bet : -7.8472


 k-point     1 :       0.0000    0.0000    0.0000
  band No.  band energies     occupation 
      1     -10.7404      2.00000
      2     -10.6372      2.00000
      3     -10.4125      2.00000
      4     -10.4113      2.00000
      5     -10.3994      2.00000
      6     -10.3967      2.00000
      7     -10.0158      2.00000
      8     -10.0020      2.00000
      9      -9.8120      2.00000
     10      -9.7214      2.00000
     11      -9.7187      2.00000
     12      -9.7112      2.00000
     13      -9.6996      2.00000
     14      -9.6961      2.00000
     15      -9.6951      2.00000
     16      -9.6772      2.00000
     17      -9.6678      2.00000
     18      -9.6538      2.00000
     19      -9.6345      2.00000
     20      -9.6218      2.00000
     21      -9.6192      2.00000
     22      -9.6066      2.00000
     23      -9.5998      2.00000
     24      -9.5504      2.00000
     25      -9.5496      2.00000
     26      -9.5441      2.00000
     27      -9.5228      2.00000
     28      -9.5208      2.00000
     29      -9.5203      2.00000
     30      -9.5173      2.00000
     31      -9.5102      2.00000
     32      -9.5092      2.00000
     33      -8.1278      2.00000
     34      -8.1155      2.00000
     35      -7.7641      2.00000
     36      -7.7633      2.00000
     37      -7.7623      2.00000
     38      -7.7613      2.00000
     39      -7.5485      2.00000
     40      -7.4337      2.00000
     41      -1.7297      2.00000
     42      -1.6615      2.00000
     43      -1.6155      2.00000
     44      -1.6066      2.00000
     45      -1.5028      2.00000
     46      -1.4606      2.00000
     47      -1.4104      2.00000
     48      -1.4055      2.00000
     49      -1.3621      2.00000
     50      -1.3612      2.00000
     51      -1.2704      2.00000
     52      -1.2682      2.00000
     53      -1.2007      2.00000
     54      -1.1955      2.00000
     55      -1.1910      2.00000
     56      -1.1848      2.00000
     57      -1.1633      2.00000
     58      -1.1618      2.00000
     59      -1.1602      2.00000
     60      -1.1419      2.00000
     61      -1.1232      2.00000
     62      -1.0198      2.00000
     63      -0.9887      2.00000
     64      -0.9806      2.00000
     65      -0.9694      2.00000
     66      -0.9671      2.00000
     67      -0.9345      2.00000
     68      -0.9287      2.00000
     69      -0.9200      2.00000
     70      -0.9108      2.00000
     71      -0.8392      2.00000
     72      -0.8279      2.00000
     73      -0.8116      2.00000
     74      -0.8063      2.00000
     75      -0.7919      2.00000
     76      -0.7893      2.00000
     77      -0.7844      2.00000
     78      -0.7278      2.00000
     79      -0.6890      2.00000
     80      -0.6730      2.00000
     81      -0.6712      2.00000
     82      -0.6678      2.00000
     83      -0.5648      2.00000
     84      -0.5588      2.00000
     85      -0.5583      2.00000
     86      -0.4983      2.00000
     87      -0.4443      2.00000
     88      -0.4413      2.00000
     89      -0.4399      2.00000
     90      -0.4344      2.00000
     91      -0.4063      2.00000
     92      -0.3853      2.00000
     93      -0.3346      2.00000
     94      -0.3272      2.00000
     95      -0.2955      2.00000
     96      -0.2952      2.00000
     97      -0.2912      2.00000
     98      -0.2905      2.00000
     99      -0.2808      2.00000
    100      -0.2543      2.00000
    101      -0.1871      2.00000
    102      -0.1865      2.00000
    103      -0.1771      2.00000
    104      -0.1551      2.00000
    105      -0.1528      2.00000
    106      -0.1512      2.00000
    107      -0.1124      2.00000
    108      -0.1033      2.00000
    109      -0.0683      2.00000
    110      -0.0407      2.00000
    111      -0.0391      2.00000
    112      -0.0256      2.00000
    113       0.0714      2.00000
    114       0.0979      2.00000
    115       0.1745      2.00000
    116       0.1999      2.00000
    117       0.2766      2.00000
    118       0.2799      2.00000
    119       0.3672      2.00000
    120       0.3751      2.00000
    121       0.3978      2.00000
    122       0.4019      2.00000
    123       0.4342      2.00000
    124       0.4668      2.00000
    125       0.4925      2.00000
    126       0.4941      2.00000
    127       0.5004      2.00000
    128       0.5719      2.00000
    129       0.5769      2.00000
    130       0.6022      2.00000
    131       0.6351      2.00000
    132       0.7023      2.00000
    133       0.7048      2.00000
    134       0.7226      2.00000
    135       0.7280      2.00000
    136       0.7562      2.00000
    137       0.7762      2.00000
    138       0.8002      2.00000
    139       0.8884      2.00000
    140       0.8947      2.00000
    141       0.9000      2.00000
    142       0.9418      2.00000
    143       0.9428      2.00000
    144       0.9442      2.00000
    145       0.9501      2.00000
    146       0.9503      2.00000
    147       0.9752      2.00000
    148       0.9798      2.00000
    149       0.9968      2.00000
    150       0.9973      2.00000
    151       1.1216      2.00000
    152       1.1351      2.00000
    153       1.1608      2.00000
    154       1.2017      2.00000
    155       1.2021      2.00000
    156       1.2637      2.00000
    157       1.2681      2.00000
    158       1.2847      2.00000
    159       1.3256      2.00000
    160       1.3805      2.00000
    161       1.4213      2.00000
    162       1.5754      2.00000
    163       1.5802      2.00000
    164       1.6352      2.00000
    165       1.7271      2.00000
    166       1.7302      2.00000
    167       1.7954      2.00000
    168       1.8039      2.00000
    169       1.8334      2.00000
    170       1.8528      2.00000
    171       1.9049      2.00000
    172       1.9107      2.00000
    173       1.9394      2.00000
    174       1.9433      2.00000
    175       1.9716      2.00000
    176       1.9823      2.00000
    177       4.0158      0.00000
    178       4.1289      0.00000
    179       4.1621      0.00000
    180       4.1658      0.00000
    181       4.3471      0.00000
    182       4.3991      0.00000
    183       4.4007      0.00000
    184       4.4514      0.00000
    185       4.5291      0.00000
    186       4.5986      0.00000
    187       4.6041      0.00000
    188       4.6089      0.00000
    189       4.6282      0.00000
    190       4.6368      0.00000
    191       4.6781      0.00000
    192       4.7265      0.00000
    193       4.7278      0.00000
    194       4.7996      0.00000
    195       4.8064      0.00000
    196       4.8729      0.00000
    197       4.8754      0.00000
    198       4.8905      0.00000
    199       4.9950      0.00000
    200       5.0995      0.00000
    201       5.2672      0.00000
    202       5.5174      0.00000
    203       5.5769      0.00000
    204       5.5831      0.00000
    205       5.9401      0.00000
    206       5.9414      0.00000
    207       5.9979      0.00000
    208       6.0188      0.00000
    209       7.2631      0.00000
    210       7.2951      0.00000
    211       7.3182      0.00000

 k-point     2 :       0.2500    0.0000    0.0000
  band No.  band energies     occupation 
      1     -10.7160      2.00000
      2     -10.6210      2.00000
      3     -10.5351      2.00000
      4     -10.5026      2.00000
      5     -10.3064      2.00000
      6     -10.2522      2.00000
      7     -10.0776      2.00000
      8     -10.0326      2.00000
      9      -9.7701      2.00000
     10      -9.7503      2.00000
     11      -9.7262      2.00000
     12      -9.7124      2.00000
     13      -9.7028      2.00000
     14      -9.6949      2.00000
     15      -9.6839      2.00000
     16      -9.6730      2.00000
     17      -9.6584      2.00000
     18      -9.6517      2.00000
     19      -9.6287      2.00000
     20      -9.6281      2.00000
     21      -9.6179      2.00000
     22      -9.6115      2.00000
     23      -9.5652      2.00000
     24      -9.5647      2.00000
     25      -9.5474      2.00000
     26      -9.5351      2.00000
     27      -9.5328      2.00000
     28      -9.5286      2.00000
     29      -9.5222      2.00000
     30      -9.5194      2.00000
     31      -9.5146      2.00000
     32      -9.5112      2.00000
     33      -8.0935      2.00000
     34      -8.0907      2.00000
     35      -7.9007      2.00000
     36      -7.8829      2.00000
     37      -7.6638      2.00000
     38      -7.6291      2.00000
     39      -7.5596      2.00000
     40      -7.4561      2.00000
     41      -1.6810      2.00000
     42      -1.6312      2.00000
     43      -1.5937      2.00000
     44      -1.5834      2.00000
     45      -1.4886      2.00000
     46      -1.4668      2.00000
     47      -1.4475      2.00000
     48      -1.4380      2.00000
     49      -1.4362      2.00000
     50      -1.4359      2.00000
     51      -1.3728      2.00000
     52      -1.3313      2.00000
     53      -1.2296      2.00000
     54      -1.2067      2.00000
     55      -1.2010      2.00000
     56      -1.1627      2.00000
     57      -1.1465      2.00000
     58      -1.1327      2.00000
     59      -1.1128      2.00000
     60      -1.0779      2.00000
     61      -1.0663      2.00000
     62      -1.0293      2.00000
     63      -0.9705      2.00000
     64      -0.9633      2.00000
     65      -0.9362      2.00000
     66      -0.9311      2.00000
     67      -0.9274      2.00000
     68      -0.9096      2.00000
     69      -0.9050      2.00000
     70      -0.8515      2.00000
     71      -0.8394      2.00000
     72      -0.8328      2.00000
     73      -0.8065      2.00000
     74      -0.7866      2.00000
     75      -0.7782      2.00000
     76      -0.7731      2.00000
     77      -0.7509      2.00000
     78      -0.7464      2.00000
     79      -0.6934      2.00000
     80      -0.6910      2.00000
     81      -0.6585      2.00000
     82      -0.6183      2.00000
     83      -0.5880      2.00000
     84      -0.5657      2.00000
     85      -0.5461      2.00000
     86      -0.5303      2.00000
     87      -0.5262      2.00000
     88      -0.4827      2.00000
     89      -0.4520      2.00000
     90      -0.4368      2.00000
     91      -0.4125      2.00000
     92      -0.4046      2.00000
     93      -0.3781      2.00000
     94      -0.3372      2.00000
     95      -0.3246      2.00000
     96      -0.3056      2.00000
     97      -0.3024      2.00000
     98      -0.2986      2.00000
     99      -0.2889      2.00000
    100      -0.2498      2.00000
    101      -0.2051      2.00000
    102      -0.2006      2.00000
    103      -0.1981      2.00000
    104      -0.1783      2.00000
    105      -0.1735      2.00000
    106      -0.1581      2.00000
    107      -0.1472      2.00000
    108      -0.1436      2.00000
    109      -0.1421      2.00000
    110      -0.0945      2.00000
    111      -0.0612      2.00000
    112       0.0238      2.00000
    113       0.1356      2.00000
    114       0.1503      2.00000
    115       0.1825      2.00000
    116       0.2529      2.00000
    117       0.3061      2.00000
    118       0.3125      2.00000
    119       0.3176      2.00000
    120       0.3296      2.00000
    121       0.3787      2.00000
    122       0.4486      2.00000
    123       0.4648      2.00000
    124       0.5079      2.00000
    125       0.5218      2.00000
    126       0.5691      2.00000
    127       0.5941      2.00000
    128       0.6154      2.00000
    129       0.6382      2.00000
    130       0.6407      2.00000
    131       0.6426      2.00000
    132       0.6732      2.00000
    133       0.7300      2.00000
    134       0.7316      2.00000
    135       0.7458      2.00000
    136       0.7645      2.00000
    137       0.7875      2.00000
    138       0.8233      2.00000
    139       0.8325      2.00000
    140       0.9066      2.00000
    141       0.9103      2.00000
    142       0.9138      2.00000
    143       0.9251      2.00000
    144       0.9260      2.00000
    145       0.9492      2.00000
    146       0.9523      2.00000
    147       0.9913      2.00000
    148       1.0018      2.00000
    149       1.0206      2.00000
    150       1.1078      2.00000
    151       1.1262      2.00000
    152       1.1347      2.00000
    153       1.1376      2.00000
    154       1.1462      2.00000
    155       1.2347      2.00000
    156       1.2587      2.00000
    157       1.2723      2.00000
    158       1.2823      2.00000
    159       1.3440      2.00000
    160       1.3751      2.00000
    161       1.4074      2.00000
    162       1.4791      2.00000
    163       1.5572      2.00000
    164       1.5707      2.00000
    165       1.6466      2.00000
    166       1.7180      2.00000
    167       1.7325      2.00000
    168       1.7387      2.00000
    169       1.8598      2.00000
    170       1.8691      2.00000
    171       1.8953      2.00000
    172       1.9054      2.00000
    173       1.9172      2.00000
    174       1.9607      2.00000
    175       1.9624      2.00000
    176       1.9835      2.00000
    177       4.0870      0.00000
    178       4.1532      0.00000
    179       4.2008      0.00000
    180       4.2160      0.00000
    181       4.3155      0.00000
    182       4.3357      0.00000
    183       4.4649      0.00000
    184       4.4744      0.00000
    185       4.4765      0.00000
    186       4.5554      0.00000
    187       4.5700      0.00000
    188       4.5906      0.00000
    189       4.6187      0.00000
    190       4.6235      0.00000
    191       4.6553      0.00000
    192       4.7056      0.00000
    193       4.7403      0.00000
    194       4.8062      0.00000
    195       4.8409      0.00000
    196       4.8461      0.00000
    197       4.8906      0.00000
    198       4.9175      0.00000
    199       4.9810      0.00000
    200       5.0602      0.00000
    201       5.3464      0.00000
    202       5.4995      0.00000
    203       5.5679      0.00000
    204       5.6622      0.00000
    205       5.9195      0.00000
    206       5.9708      0.00000
    207       5.9857      0.00000
    208       6.0263      0.00000
    209       7.3663      0.00000
    210       7.4051      0.00000
    211       7.4132      0.00000

 k-point     3 :      -0.0000    0.0000   -0.2500
  band No.  band energies     occupation 
      1     -10.7271      2.00000
      2     -10.6546      2.00000
      3     -10.4095      2.00000
      4     -10.4080      2.00000
      5     -10.4002      2.00000
      6     -10.3978      2.00000
      7     -10.0182      2.00000
      8     -10.0089      2.00000
      9      -9.7938      2.00000
     10      -9.7268      2.00000
     11      -9.7254      2.00000
     12      -9.7197      2.00000
     13      -9.7108      2.00000
     14      -9.7037      2.00000
     15      -9.6936      2.00000
     16      -9.6793      2.00000
     17      -9.6681      2.00000
     18      -9.6594      2.00000
     19      -9.6236      2.00000
     20      -9.6053      2.00000
     21      -9.5979      2.00000
     22      -9.5914      2.00000
     23      -9.5829      2.00000
     24      -9.5614      2.00000
     25      -9.5482      2.00000
     26      -9.5409      2.00000
     27      -9.5332      2.00000
     28      -9.5279      2.00000
     29      -9.5243      2.00000
     30      -9.5232      2.00000
     31      -9.5162      2.00000
     32      -9.5122      2.00000
     33      -8.1282      2.00000
     34      -8.1196      2.00000
     35      -7.7665      2.00000
     36      -7.7653      2.00000
     37      -7.7611      2.00000
     38      -7.7599      2.00000
     39      -7.5287      2.00000
     40      -7.4484      2.00000
     41      -1.7139      2.00000
     42      -1.6448      2.00000
     43      -1.6321      2.00000
     44      -1.5967      2.00000
     45      -1.5296      2.00000
     46      -1.5159      2.00000
     47      -1.4239      2.00000
     48      -1.3924      2.00000
     49      -1.3746      2.00000
     50      -1.3574      2.00000
     51      -1.2870      2.00000
     52      -1.2597      2.00000
     53      -1.2550      2.00000
     54      -1.2059      2.00000
     55      -1.1922      2.00000
     56      -1.1793      2.00000
     57      -1.1765      2.00000
     58      -1.1523      2.00000
     59      -1.1063      2.00000
     60      -1.0970      2.00000
     61      -1.0659      2.00000
     62      -1.0543      2.00000
     63      -0.9947      2.00000
     64      -0.9908      2.00000
     65      -0.9748      2.00000
     66      -0.9653      2.00000
     67      -0.9176      2.00000
     68      -0.9147      2.00000
     69      -0.9062      2.00000
     70      -0.8447      2.00000
     71      -0.8408      2.00000
     72      -0.8374      2.00000
     73      -0.8046      2.00000
     74      -0.7834      2.00000
     75      -0.7772      2.00000
     76      -0.7688      2.00000
     77      -0.7520      2.00000
     78      -0.7335      2.00000
     79      -0.7266      2.00000
     80      -0.6986      2.00000
     81      -0.6977      2.00000
     82      -0.6773      2.00000
     83      -0.6351      2.00000
     84      -0.6097      2.00000
     85      -0.5597      2.00000
     86      -0.4655      2.00000
     87      -0.4626      2.00000
     88      -0.4311      2.00000
     89      -0.4085      2.00000
     90      -0.4066      2.00000
     91      -0.3882      2.00000
     92      -0.3627      2.00000
     93      -0.3517      2.00000
     94      -0.3320      2.00000
     95      -0.3177      2.00000
     96      -0.2918      2.00000
     97      -0.2882      2.00000
     98      -0.2737      2.00000
     99      -0.2617      2.00000
    100      -0.2380      2.00000
    101      -0.2124      2.00000
    102      -0.1903      2.00000
    103      -0.1898      2.00000
    104      -0.1713      2.00000
    105      -0.1698      2.00000
    106      -0.1610      2.00000
    107      -0.1418      2.00000
    108      -0.1349      2.00000
    109      -0.1006      2.00000
    110      -0.0869      2.00000
    111      -0.0510      2.00000
    112       0.0326      2.00000
    113       0.0443      2.00000
    114       0.1733      2.00000
    115       0.1830      2.00000
    116       0.2606      2.00000
    117       0.2864      2.00000
    118       0.3043      2.00000
    119       0.3199      2.00000
    120       0.3745      2.00000
    121       0.3940      2.00000
    122       0.4280      2.00000
    123       0.4320      2.00000
    124       0.4419      2.00000
    125       0.4840      2.00000
    126       0.5015      2.00000
    127       0.5203      2.00000
    128       0.5540      2.00000
    129       0.6053      2.00000
    130       0.6650      2.00000
    131       0.6706      2.00000
    132       0.6943      2.00000
    133       0.7041      2.00000
    134       0.7317      2.00000
    135       0.7410      2.00000
    136       0.7592      2.00000
    137       0.7702      2.00000
    138       0.7806      2.00000
    139       0.8816      2.00000
    140       0.8846      2.00000
    141       0.8865      2.00000
    142       0.8998      2.00000
    143       0.9092      2.00000
    144       0.9187      2.00000
    145       0.9276      2.00000
    146       0.9343      2.00000
    147       0.9710      2.00000
    148       0.9943      2.00000
    149       1.0253      2.00000
    150       1.0546      2.00000
    151       1.1108      2.00000
    152       1.1500      2.00000
    153       1.1583      2.00000
    154       1.1704      2.00000
    155       1.2367      2.00000
    156       1.2585      2.00000
    157       1.2786      2.00000
    158       1.3029      2.00000
    159       1.3198      2.00000
    160       1.3452      2.00000
    161       1.5165      2.00000
    162       1.5913      2.00000
    163       1.6217      2.00000
    164       1.6589      2.00000
    165       1.7294      2.00000
[...]
    143       0.9140      2.00000
    144       0.9151      2.00000
    145       1.0279      2.00000
    146       1.0289      2.00000
    147       1.0306      2.00000
    148       1.0315      2.00000
    149       1.1295      2.00000
    150       1.1319      2.00000
    151       1.1329      2.00000
    152       1.1338      2.00000
    153       1.1749      2.00000
    154       1.1771      2.00000
    155       1.1779      2.00000
    156       1.1791      2.00000
    157       1.3182      2.00000
    158       1.3198      2.00000
    159       1.3204      2.00000
    160       1.3221      2.00000
    161       1.6582      2.00000
    162       1.6650      2.00000
    163       1.6665      2.00000
    164       1.6676      2.00000
    165       1.7384      2.00000
    166       1.7436      2.00000
    167       1.7451      2.00000
    168       1.7462      2.00000
    169       1.8225      2.00000
    170       1.8237      2.00000
    171       1.8258      2.00000
    172       1.8284      2.00000
    173       1.8966      2.00000
    174       1.8977      2.00000
    175       1.9002      2.00000
    176       1.9036      2.00000
    177       4.1049      0.00000
    178       4.1054      0.00000
    179       4.1069      0.00000
    180       4.1082      0.00000
    181       4.2770      0.00000
    182       4.2791      0.00000
    183       4.2802      0.00000
    184       4.2804      0.00000
    185       4.4377      0.00000
    186       4.4404      0.00000
    187       4.4417      0.00000
    188       4.4429      0.00000
    189       4.7572      0.00000
    190       4.7580      0.00000
    191       4.7586      0.00000
    192       4.7595      0.00000
    193       4.8752      0.00000
    194       4.8760      0.00000
    195       4.8769      0.00000
    196       4.8776      0.00000
    197       4.9924      0.00000
    198       4.9936      0.00000
    199       4.9965      0.00000
    200       4.9967      0.00000
    201       5.6296      0.00000
    202       5.6301      0.00000
    203       5.6313      0.00000
    204       5.6369      0.00000
    205       5.7329      0.00000
    206       5.7334      0.00000
    207       5.7336      0.00000
    208       5.7384      0.00000
    209       7.6323      0.00000
    210       7.6338      0.00000
    211       7.6358      0.00000

 k-point    36 :       0.5000    0.5000    0.5000
  band No.  band energies     occupation 
      1     -10.6099      2.00000
      2     -10.6085      2.00000
      3     -10.6074      2.00000
      4     -10.6069      2.00000
      5     -10.1724      2.00000
      6     -10.1715      2.00000
      7     -10.1712      2.00000
      8     -10.1701      2.00000
      9      -9.7238      2.00000
     10      -9.7230      2.00000
     11      -9.7222      2.00000
     12      -9.7214      2.00000
     13      -9.6870      2.00000
     14      -9.6865      2.00000
     15      -9.6856      2.00000
     16      -9.6853      2.00000
     17      -9.6026      2.00000
     18      -9.6017      2.00000
     19      -9.6016      2.00000
     20      -9.6009      2.00000
     21      -9.5984      2.00000
     22      -9.5975      2.00000
     23      -9.5967      2.00000
     24      -9.5961      2.00000
     25      -9.5572      2.00000
     26      -9.5561      2.00000
     27      -9.5553      2.00000
     28      -9.5514      2.00000
     29      -9.5329      2.00000
     30      -9.5313      2.00000
     31      -9.5309      2.00000
     32      -9.5271      2.00000
     33      -8.0166      2.00000
     34      -8.0161      2.00000
     35      -8.0132      2.00000
     36      -8.0121      2.00000
     37      -7.5565      2.00000
     38      -7.5556      2.00000
     39      -7.5551      2.00000
     40      -7.5547      2.00000
     41      -1.5653      2.00000
     42      -1.5631      2.00000
     43      -1.5611      2.00000
     44      -1.5598      2.00000
     45      -1.5305      2.00000
     46      -1.5292      2.00000
     47      -1.5287      2.00000
     48      -1.5281      2.00000
     49      -1.4651      2.00000
     50      -1.4647      2.00000
     51      -1.4641      2.00000
     52      -1.4637      2.00000
     53      -1.1682      2.00000
     54      -1.1672      2.00000
     55      -1.1641      2.00000
     56      -1.1610      2.00000
     57      -1.0842      2.00000
     58      -1.0831      2.00000
     59      -1.0815      2.00000
     60      -1.0806      2.00000
     61      -1.0571      2.00000
     62      -1.0557      2.00000
     63      -1.0497      2.00000
     64      -1.0478      2.00000
     65      -0.9212      2.00000
     66      -0.9191      2.00000
     67      -0.9165      2.00000
     68      -0.9129      2.00000
     69      -0.8342      2.00000
     70      -0.8338      2.00000
     71      -0.8317      2.00000
     72      -0.8252      2.00000
     73      -0.8042      2.00000
     74      -0.8035      2.00000
     75      -0.8024      2.00000
     76      -0.8001      2.00000
     77      -0.7364      2.00000
     78      -0.7346      2.00000
     79      -0.7335      2.00000
     80      -0.7307      2.00000
     81      -0.6474      2.00000
     82      -0.6465      2.00000
     83      -0.6454      2.00000
     84      -0.6451      2.00000
     85      -0.4843      2.00000
     86      -0.4830      2.00000
     87      -0.4828      2.00000
     88      -0.4805      2.00000
     89      -0.3703      2.00000
     90      -0.3675      2.00000
     91      -0.3661      2.00000
     92      -0.3634      2.00000
     93      -0.3032      2.00000
     94      -0.3015      2.00000
     95      -0.3012      2.00000
     96      -0.2988      2.00000
     97      -0.2554      2.00000
     98      -0.2542      2.00000
     99      -0.2530      2.00000
    100      -0.2519      2.00000
    101      -0.1522      2.00000
    102      -0.1513      2.00000
    103      -0.1498      2.00000
    104      -0.1495      2.00000
    105      -0.1381      2.00000
    106      -0.1370      2.00000
    107      -0.1359      2.00000
    108      -0.1329      2.00000
    109      -0.0669      2.00000
    110      -0.0638      2.00000
    111      -0.0630      2.00000
    112      -0.0618      2.00000
    113       0.1299      2.00000
    114       0.1301      2.00000
    115       0.1328      2.00000
    116       0.1342      2.00000
    117       0.3081      2.00000
    118       0.3087      2.00000
    119       0.3095      2.00000
    120       0.3123      2.00000
    121       0.3494      2.00000
    122       0.3510      2.00000
    123       0.3532      2.00000
    124       0.3566      2.00000
    125       0.5217      2.00000
    126       0.5224      2.00000
    127       0.5231      2.00000
    128       0.5237      2.00000
    129       0.6093      2.00000
    130       0.6094      2.00000
    131       0.6110      2.00000
    132       0.6123      2.00000
    133       0.6685      2.00000
    134       0.6691      2.00000
    135       0.6700      2.00000
    136       0.6736      2.00000
    137       0.8220      2.00000
    138       0.8235      2.00000
    139       0.8274      2.00000
    140       0.8291      2.00000
    141       0.9178      2.00000
    142       0.9184      2.00000
    143       0.9189      2.00000
    144       0.9200      2.00000
    145       1.0573      2.00000
    146       1.0590      2.00000
    147       1.0598      2.00000
    148       1.0605      2.00000
    149       1.1460      2.00000
    150       1.1470      2.00000
    151       1.1475      2.00000
    152       1.1496      2.00000
    153       1.1861      2.00000
    154       1.1885      2.00000
    155       1.1895      2.00000
    156       1.1902      2.00000
    157       1.3096      2.00000
    158       1.3114      2.00000
    159       1.3117      2.00000
    160       1.3139      2.00000
    161       1.6783      2.00000
    162       1.6873      2.00000
    163       1.6881      2.00000
    164       1.6896      2.00000
    165       1.7812      2.00000
    166       1.7850      2.00000
    167       1.7858      2.00000
    168       1.7882      2.00000
    169       1.8099      2.00000
    170       1.8103      2.00000
    171       1.8113      2.00000
    172       1.8150      2.00000
    173       1.9040      2.00000
    174       1.9051      2.00000
    175       1.9073      2.00000
    176       1.9121      2.00000
    177       4.0240      0.00000
    178       4.0245      0.00000
    179       4.0262      0.00000
    180       4.0267      0.00000
    181       4.2451      0.00000
    182       4.2469      0.00000
    183       4.2477      0.00000
    184       4.2486      0.00000
    185       4.3842      0.00000
    186       4.3882      0.00000
    187       4.3886      0.00000
    188       4.3904      0.00000
    189       4.7896      0.00000
    190       4.7906      0.00000
    191       4.7917      0.00000
    192       4.7920      0.00000
    193       4.8974      0.00000
    194       4.8980      0.00000
    195       4.8992      0.00000
    196       4.8996      0.00000
    197       5.0684      0.00000
    198       5.0701      0.00000
    199       5.0732      0.00000
    200       5.0733      0.00000
    201       5.5958      0.00000
    202       5.5966      0.00000
    203       5.5983      0.00000
    204       5.6053      0.00000
    205       5.7217      0.00000
    206       5.7226      0.00000
    207       5.7230      0.00000
    208       5.7284      0.00000
    209       7.5414      0.00000
    210       7.5426      0.00000
    211       7.5451      0.00000


--------------------------------------------------------------------------------------------------------


 soft charge-density along one line, spin component           1
         0         1         2         3         4         5         6         7         8         9
 total charge-density along one line
 
 pseudopotential strength for first ion, spin component:           1
 -6.431   0.000  -0.000   0.001   0.000  -6.566   0.000  -0.000
  0.000  -6.435   0.001   0.000  -0.001   0.000  -6.571   0.001
 -0.000   0.001  -6.426  -0.000  -0.002  -0.000   0.001  -6.562
  0.001   0.000  -0.000  -6.431   0.000   0.001   0.000  -0.000
  0.000  -0.001  -0.002   0.000  -6.423   0.000  -0.001  -0.002
 -6.566   0.000  -0.000   0.001   0.000  -6.671   0.000  -0.000
  0.000  -6.571   0.001   0.000  -0.001   0.000  -6.675   0.001
 -0.000   0.001  -6.562  -0.000  -0.002  -0.000   0.001  -6.667
  0.001   0.000  -0.000  -6.566   0.000   0.001   0.000  -0.000
  0.000  -0.001  -0.002   0.000  -6.559   0.000  -0.001  -0.002
  0.000   0.001   0.000   0.000  -0.000   0.000   0.001   0.000
  0.001   0.001   0.000   0.001   0.000   0.001   0.001  -0.000
 -0.000   0.006   0.004   0.000   0.007  -0.000   0.006   0.004
  0.000  -0.006   0.008   0.000  -0.000   0.000  -0.006   0.008
 -0.006   0.000   0.000   0.006  -0.000  -0.006   0.000   0.000
  0.000   0.008   0.005   0.000   0.008   0.000   0.007   0.004
  0.000  -0.008   0.010  -0.000  -0.000   0.000  -0.007   0.009
 -0.008   0.000  -0.000   0.008  -0.000  -0.007   0.000  -0.000
 total augmentation occupancy for first ion, spin component:           1
  2.294   0.014  -0.041  -0.014  -0.000  -0.307  -0.016   0.043   0.006   0.004  -0.057   0.012  -0.010  -0.002   0.045   0.001
  0.014   2.271   0.066   0.014  -0.118  -0.016  -0.289  -0.066  -0.016   0.117  -0.133   0.023  -0.042   0.041   0.000   0.005
 -0.041   0.066   3.996   0.023  -0.120   0.043  -0.066  -1.840  -0.027   0.115   0.058  -0.007   0.083   0.187   0.004  -0.003
 -0.014   0.014   0.023   2.296   0.036   0.006  -0.016  -0.027  -0.309  -0.035  -0.058   0.012   0.002   0.011  -0.046  -0.000
 -0.000  -0.118  -0.120   0.036   4.145   0.005   0.117   0.115  -0.036  -1.981  -0.096   0.011   0.163  -0.010   0.001  -0.005
 -0.307  -0.016   0.043   0.006   0.005   0.304   0.017  -0.044   0.000  -0.007   0.051  -0.013   0.008   0.001  -0.033  -0.001
 -0.016  -0.289  -0.066  -0.016   0.117   0.017   0.288   0.066   0.017  -0.117   0.120  -0.025   0.030  -0.029  -0.000  -0.002
  0.043  -0.066  -1.840  -0.027   0.115  -0.044   0.066   1.685   0.030  -0.110  -0.052   0.009  -0.077  -0.173  -0.004   0.005
  0.006  -0.016  -0.027  -0.309  -0.036   0.000   0.017   0.030   0.306   0.035   0.052  -0.013  -0.001  -0.009   0.034   0.000
  0.004   0.117   0.115  -0.035  -1.981  -0.007  -0.117  -0.110   0.035   1.819   0.087  -0.015  -0.150   0.008  -0.001   0.009
 -0.057  -0.133   0.058  -0.058  -0.096   0.051   0.120  -0.052   0.052   0.087   1.432  -0.306   0.048  -0.049   0.000  -0.004
  0.012   0.023  -0.007   0.012   0.011  -0.013  -0.025   0.009  -0.013  -0.015  -0.306   0.070  -0.010   0.010  -0.000   0.001
 -0.010  -0.042   0.083   0.002   0.163   0.008   0.030  -0.077  -0.001  -0.150   0.048  -0.010   0.086   0.009   0.003  -0.006
 -0.002   0.041   0.187   0.011  -0.010   0.001  -0.029  -0.173  -0.009   0.008  -0.049   0.010   0.009   0.085   0.003  -0.001
  0.045   0.000   0.004  -0.046   0.001  -0.033  -0.000  -0.004   0.034  -0.001   0.000  -0.000   0.003   0.003   0.096  -0.000
  0.001   0.005  -0.003  -0.000  -0.005  -0.001  -0.002   0.005   0.000   0.009  -0.004   0.001  -0.006  -0.001  -0.000   0.000
  0.000  -0.005  -0.006  -0.001   0.000  -0.000   0.002   0.011   0.001  -0.000   0.004  -0.001  -0.001  -0.006  -0.000   0.000
 -0.005   0.000  -0.000   0.005  -0.000   0.002   0.000   0.000  -0.002   0.000  -0.000   0.000  -0.000  -0.000  -0.007   0.000


------------------------ aborting loop because EDIFF is reached ----------------------------------------


 


 total charge     
 
# of ion       s       p       d       tot
------------------------------------------
    1        0.240   0.151   9.320   9.711
    2        0.240   0.151   9.320   9.711
    3        0.240   0.151   9.320   9.711
    4        0.240   0.151   9.321   9.711
    5        0.240   0.150   9.321   9.711
    6        0.241   0.151   9.320   9.712
    7        0.240   0.151   9.321   9.711
    8        0.240   0.150   9.321   9.711
    9        1.834   1.404   0.138   3.375
   10        1.834   1.404   0.138   3.375
   11        1.834   1.404   0.138   3.375
   12        1.834   1.404   0.138   3.375
   13        1.834   1.404   0.138   3.375
   14        1.834   1.403   0.138   3.375
   15        1.834   1.404   0.138   3.375
   16        1.834   1.404   0.138   3.375
   17        1.518   2.744   0.012   4.274
   18        1.515   2.743   0.016   4.273
   19        1.515   2.743   0.016   4.273
   20        1.518   2.744   0.012   4.274
   21        1.518   2.744   0.012   4.274
   22        1.515   2.742   0.016   4.273
   23        1.515   2.743   0.016   4.273
   24        1.518   2.744   0.012   4.274
   25        1.518   2.744   0.012   4.274
   26        1.515   2.743   0.016   4.273
   27        1.515   2.743   0.016   4.273
   28        1.518   2.744   0.012   4.274
   29        1.518   2.744   0.012   4.274
   30        1.515   2.742   0.016   4.273
   31        1.515   2.743   0.016   4.273
   32        1.518   2.744   0.012   4.274
   33        1.515   2.743   0.016   4.273
   34        1.518   2.744   0.012   4.274
   35        1.518   2.744   0.012   4.274
   36        1.515   2.743   0.016   4.273
   37        1.515   2.743   0.016   4.273
   38        1.518   2.744   0.012   4.274
   39        1.518   2.744   0.012   4.274
   40        1.515   2.742   0.016   4.273
   41        1.515   2.743   0.016   4.273
   42        1.518   2.744   0.012   4.274
   43        1.518   2.744   0.012   4.274
   44        1.515   2.743   0.016   4.273
   45        1.515   2.743   0.016   4.273
   46        1.518   2.744   0.012   4.274
   47        1.518   2.744   0.012   4.274
   48        1.515   2.743   0.016   4.273
--------------------------------------------------
tot         65.113 100.217  76.109 241.439
 


--------------------------------------------------------------------------------------------------------



  FREE ENERGIE OF THE ION-ELECTRON SYSTEM (eV)
  ---------------------------------------------------
  free  energy   TOTEN  =      -120.11725285 eV

  energy  without entropy=     -120.11725285  energy(sigma->0) =     -120.11725285
 


--------------------------------------------------------------------------------------------------------




--------------------------------------------------------------------------------------------------------


 writing wavefunctions
     LOOP+:  cpu time  114.4899: real time  114.5409
    4ORBIT:  cpu time    0.0000: real time    0.0000
 


 total charge     
 
# of ion       s       p       d       tot
------------------------------------------
    1        0.240   0.151   9.320   9.711
    2        0.240   0.151   9.320   9.711
    3        0.240   0.151   9.320   9.711
    4        0.240   0.151   9.321   9.711
    5        0.240   0.150   9.321   9.711
    6        0.241   0.151   9.320   9.712
    7        0.240   0.151   9.321   9.711
    8        0.240   0.150   9.321   9.711
    9        1.834   1.404   0.138   3.375
   10        1.834   1.404   0.138   3.375
   11        1.834   1.404   0.138   3.375
   12        1.834   1.404   0.138   3.375
   13        1.834   1.404   0.138   3.375
   14        1.834   1.403   0.138   3.375
   15        1.834   1.404   0.138   3.375
   16        1.834   1.404   0.138   3.375
   17        1.518   2.744   0.012   4.274
   18        1.515   2.743   0.016   4.273
   19        1.515   2.743   0.016   4.273
   20        1.518   2.744   0.012   4.274
   21        1.518   2.744   0.012   4.274
   22        1.515   2.742   0.016   4.273
   23        1.515   2.743   0.016   4.273
   24        1.518   2.744   0.012   4.274
   25        1.518   2.744   0.012   4.274
   26        1.515   2.743   0.016   4.273
   27        1.515   2.743   0.016   4.273
   28        1.518   2.744   0.012   4.274
   29        1.518   2.744   0.012   4.274
   30        1.515   2.742   0.016   4.273
   31        1.515   2.743   0.016   4.273
   32        1.518   2.744   0.012   4.274
   33        1.515   2.743   0.016   4.273
   34        1.518   2.744   0.012   4.274
   35        1.518   2.744   0.012   4.274
   36        1.515   2.743   0.016   4.273
   37        1.515   2.743   0.016   4.273
   38        1.518   2.744   0.012   4.274
   39        1.518   2.744   0.012   4.274
   40        1.515   2.742   0.016   4.273
   41        1.515   2.743   0.016   4.273
   42        1.518   2.744   0.012   4.274
   43        1.518   2.744   0.012   4.274
   44        1.515   2.743   0.016   4.273
   45        1.515   2.743   0.016   4.273
   46        1.518   2.744   0.012   4.274
   47        1.518   2.744   0.012   4.274
   48        1.515   2.743   0.016   4.273
--------------------------------------------------
tot         65.113 100.217  76.109 241.439
 
 BZINTS: Fermi energy:    1.983679;  352.000000 electrons
         Band energy:-0.731331E+03;  BLOECHL correction:    0.000000

 total amount of memory used by VASP MPI-rank0  2748304. kBytes
=======================================================================

   base      :      30000. kBytes
   nonl-proj :     299765. kBytes
   fftplans  :      34720. kBytes
   grid      :      70000. kBytes
   one-center:        746. kBytes
   wavefun   :    2313073. kBytes
 
  
  
 General timing and accounting informations for this job:
 ========================================================
  
                  Total CPU time used (sec):      154.777
                            User time (sec):      149.101
                          System time (sec):        5.676
                         Elapsed time (sec):      155.720
  
                   Maximum memory used (kb):     4292540.
                   Average memory used (kb):           0.
  
                          Minor page faults:       419185
                          Major page faults:           18
                 Voluntary context switches:         3661
