 vasp.6.1.0 28Jan20 (build Jan 13 2021 21:44:47) complex                        
  
 executed on             LinuxIFC date 2021.09.12  19:29:51
 running on    9 total cores
 distrk:  each k-point on    1 cores,    9 groups
 distr:  one band on NCORE=   1 cores,    1 groups


--------------------------------------------------------------------------------------------------------


 INCAR:
 POTCAR:    PAW_PBE Ag 02Apr2005                  
 POTCAR:    PAW_PBE Bi 08Apr2002                  
 POTCAR:    PAW_PBE I 08Apr2002                   
 -----------------------------------------------------------------------------
|                                                                             |
|           W    W    AA    RRRRR   N    N  II  N    N   GGGG   !!!           |
|           W    W   A  A   R    R  NN   N  II  NN   N  G    G  !!!           |
|           W    W  A    A  R    R  N N  N  II  N N  N  G       !!!           |
|           W WW W  AAAAAA  RRRRR   N  N N  II  N  N N  G  GGG   !            |
|           WW  WW  A    A  R   R   N   NN  II  N   NN  G    G                |
|           W    W  A    A  R    R  N    N  II  N    N   GGGG   !!!           |
|                                                                             |
|     For optimal performance we recommend to set                             |
|       NCORE = 4 - approx SQRT(number of cores).                             |
|     NCORE specifies how many cores store one orbital (NPAR=cpu/NCORE).      |
|     This setting can greatly improve the performance of VASP for DFT.       |
|     The default, NCORE=1 might be grossly inefficient on modern             |
|     multi-core architectures or massively parallel machines. Do your        |
|     own testing!!!!                                                         |
|     Unfortunately you need to use the default for GW and RPA                |
|     calculations (for HF NCORE is supported but not extensively tested      |
|     yet).                                                                   |
|                                                                             |
 -----------------------------------------------------------------------------

 POTCAR:    PAW_PBE Ag 02Apr2005                  
   VRHFIN =Ag : s1 d10                                                                              
   LEXCH  = PE                                                                                      
   EATOM  =  1037.2675 eV,   76.2370 Ry                                                             
                                                                                                    
   TITEL  = PAW_PBE Ag 02Apr2005                                                                    
   LULTRA =        F    use ultrasoft PP ?                                                          
   IUNSCR =        1    unscreen: 0-lin 1-nonlin 2-no                                               
   RPACOR =    2.000    partial core radius                                                         
   POMASS =  107.868; ZVAL   =   11.000    mass and valenz                                          
   RCORE  =    2.500    outmost cutoff radius                                                       
   RWIGS  =    2.840; RWIGS  =    1.503    wigner-seitz radius (au A)                               
   ENMAX  =  249.844; ENMIN  =  187.383 eV                                                          
   ICORE  =        3    local potential                                                             
   LCOR   =        T    correct aug charges                                                         
   LPAW   =        T    paw PP                                                                      
   EAUG   =  412.496                                                                                
   DEXC   =    0.000                                                                                
   RMAX   =    2.560    core radius for proj-oper                                                   
   RAUG   =    1.300    factor for augmentation sphere                                              
   RDEP   =    2.576    radius for radial grids                                                     
   RDEPT  =    2.072    core radius for aug-charge                                                  
                                                                                                    
   Atomic configuration                                                                             
   12 entries                                                                                       
     n  l   j            E        occ.                                                              
     1  0  0.50    -25324.9161   2.0000                                                             
     2  0  0.50     -3728.5341   2.0000                                                             
     2  1  1.50     -3344.0404   6.0000                                                             
     3  0  0.50      -683.5581   2.0000                                                             
     3  1  1.50      -557.3225   6.0000                                                             
     3  2  2.50      -358.3853  10.0000                                                             
     4  0  0.50       -95.0341   2.0000                                                             
     4  1  1.50       -58.5511   6.0000                                                             
     4  2  2.50        -7.4440  10.0000                                                             
     5  0  0.50        -4.4045   1.0000                                                             
     5  1  0.50        -1.3606   0.0000                                                             
     4  3  2.50        -1.3606   0.0000                                                             
   Description                                                                                      
     l       E           TYP  RCUT    TYP  RCUT                                                     
     2     -7.4439781     23  2.400                                                                 
     2     -8.8045607     23  2.400                                                                 
     0     -4.4044681     23  2.400                                                                 
     0      1.9520038     23  2.400                                                                 
     1     -1.3605826     23  2.500                                                                 
     1     27.2116520     23  2.500                                                                 
     3     -4.0817478     23  2.400                                                                 
  local pseudopotential read in
  partial core-charges read in
  partial kinetic energy density read in
  atomic valenz-charges read in
  non local Contribution for L=           2  read in
    real space projection operators read in
  non local Contribution for L=           2  read in
    real space projection operators read in
  non local Contribution for L=           0  read in
    real space projection operators read in
  non local Contribution for L=           0  read in
    real space projection operators read in
  non local Contribution for L=           1  read in
    real space projection operators read in
  non local Contribution for L=           1  read in
    real space projection operators read in
    PAW grid and wavefunctions read in
 
   number of l-projection  operators is LMAX  =           6
   number of lm-projection operators is LMMAX =          18
 
 POTCAR:    PAW_PBE Bi 08Apr2002                  
   VRHFIN =Bi:                                                                                      
   LEXCH  = PE                                                                                      
   EATOM  =   150.8133 eV,   11.0845 Ry                                                             
                                                                                                    
   TITEL  = PAW_PBE Bi 08Apr2002                                                                    
   LULTRA =        F    use ultrasoft PP ?                                                          
   IUNSCR =        1    unscreen: 0-lin 1-nonlin 2-no                                               
   RPACOR =    2.200    partial core radius                                                         
   POMASS =  208.980; ZVAL   =    5.000    mass and valenz                                          
   RCORE  =    3.000    outmost cutoff radius                                                       
   RWIGS  =    3.090; RWIGS  =    1.635    wigner-seitz radius (au A)                               
   ENMAX  =  105.037; ENMIN  =   78.777 eV                                                          
   ICORE  =        3    local potential                                                             
   LCOR   =        T    correct aug charges                                                         
   LPAW   =        T    paw PP                                                                      
   EAUG   =  265.427                                                                                
   DEXC   =    0.000                                                                                
   RMAX   =    3.067    core radius for proj-oper                                                   
   RAUG   =    1.300    factor for augmentation sphere                                              
   RDEP   =    3.012    radius for radial grids                                                     
   RDEPT  =    2.604    core radius for aug-charge                                                  
                                                                                                    
   Atomic configuration                                                                             
   17 entries                                                                                       
     n  l   j            E        occ.                                                              
     1  0  0.50    -90639.6582   2.0000                                                             
     2  0  0.50    -16282.4667   2.0000                                                             
     2  1  1.50    -13922.8287   6.0000                                                             
     3  0  0.50     -3930.4763   2.0000                                                             
     3  1  1.50     -3256.7013   6.0000                                                             
     3  2  2.50     -2581.6169  10.0000                                                             
     4  0  0.50      -902.2614   2.0000                                                             
     4  1  1.50      -681.5915   6.0000                                                             
     4  2  2.50      -429.8249  10.0000                                                             
     4  3  3.50      -152.6004  14.0000                                                             
     5  0  0.50      -157.7156   2.0000                                                             
     5  1  1.50       -95.8054   6.0000                                                             
     5  2  2.50       -27.0806  10.0000                                                             
     6  0  0.50       -14.4732   2.0000                                                             
     6  1  1.50        -4.5702   3.0000                                                             
     6  2  2.50        -2.7212   0.0000                                                             
     5  3  2.50        -2.7212   0.0000                                                             
   Description                                                                                      
     l       E           TYP  RCUT    TYP  RCUT                                                     
     0    -14.4732299     23  3.000                                                                 
     0    -12.2452434     23  3.000                                                                 
     1     -4.5701666     23  3.000                                                                 
     1    -13.6058260     23  3.000                                                                 
     2     -2.7211652     23  3.000                                                                 
     3     -1.3605826      7  3.000                                                                 
  local pseudopotential read in
  partial core-charges read in
  partial kinetic energy density read in
  kinetic energy density of atom read in
  atomic valenz-charges read in
  non local Contribution for L=           0  read in
    real space projection operators read in
  non local Contribution for L=           0  read in
    real space projection operators read in
  non local Contribution for L=           1  read in
    real space projection operators read in
  non local Contribution for L=           1  read in
    real space projection operators read in
  non local Contribution for L=           2  read in
    real space projection operators read in
    PAW grid and wavefunctions read in
 
   number of l-projection  operators is LMAX  =           5
   number of lm-projection operators is LMMAX =          13
 
 POTCAR:    PAW_PBE I 08Apr2002                   
   VRHFIN =I : s2p5                                                                                 
   LEXCH  = PE                                                                                      
   EATOM  =   315.8678 eV,   23.2156 Ry                                                             
                                                                                                    
   TITEL  = PAW_PBE I 08Apr2002                                                                     
   LULTRA =        F    use ultrasoft PP ?                                                          
   IUNSCR =        1    unscreen: 0-lin 1-nonlin 2-no                                               
   RPACOR =    2.200    partial core radius                                                         
   POMASS =  126.904; ZVAL   =    7.000    mass and valenz                                          
   RCORE  =    2.300    outmost cutoff radius                                                       
   RWIGS  =    2.810; RWIGS  =    1.487    wigner-seitz radius (au A)                               
   ENMAX  =  175.647; ENMIN  =  131.735 eV                                                          
   ICORE  =        3    local potential                                                             
   LCOR   =        T    correct aug charges                                                         
   LPAW   =        T    paw PP                                                                      
   EAUG   =  370.139                                                                                
   DEXC   =    0.000                                                                                
   RMAX   =    2.359    core radius for proj-oper                                                   
   RAUG   =    1.300    factor for augmentation sphere                                              
   RDEP   =    2.392    radius for radial grids                                                     
   RDEPT  =    2.170    core radius for aug-charge                                                  
                                                                                                    
   Atomic configuration                                                                             
   13 entries                                                                                       
     n  l   j            E        occ.                                                              
     1  0  0.50    -32976.3739   2.0000                                                             
     2  0  0.50     -5094.5933   2.0000                                                             
     2  1  1.50     -4572.0131   6.0000                                                             
     3  0  0.50     -1028.2813   2.0000                                                             
     3  1  1.50      -859.0250   6.0000                                                             
     3  2  2.50      -605.7620  10.0000                                                             
     4  0  0.50      -180.5540   2.0000                                                             
     4  1  1.50      -127.5306   6.0000                                                             
     4  2  2.50       -50.2720  10.0000                                                             
     5  0  0.50       -17.4058   2.0000                                                             
     5  1  0.50        -7.0851   5.0000                                                             
     5  2  1.50        -7.0750   0.0000                                                             
     4  3  2.50        -7.0750   0.0000                                                             
   Description                                                                                      
     l       E           TYP  RCUT    TYP  RCUT                                                     
     0    -17.4058016     23  2.300                                                                 
     0    -18.7663842     23  2.300                                                                 
     1     -7.0850686     23  2.300                                                                 
     1     -4.2150896     23  2.300                                                                 
     2     -7.0750295     23  2.300                                                                 
     3     -1.3605826     23  2.300                                                                 
  local pseudopotential read in
  partial core-charges read in
  partial kinetic energy density read in
  atomic valenz-charges read in
  non local Contribution for L=           0  read in
    real space projection operators read in
  non local Contribution for L=           0  read in
    real space projection operators read in
  non local Contribution for L=           1  read in
    real space projection operators read in
  non local Contribution for L=           1  read in
    real space projection operators read in
  non local Contribution for L=           2  read in
    real space projection operators read in
    PAW grid and wavefunctions read in
 
   number of l-projection  operators is LMAX  =           5
   number of lm-projection operators is LMMAX =          13
 
 -----------------------------------------------------------------------------
|                                                                             |
|               ----> ADVICE to this user running VASP <----                  |
|                                                                             |
|     You have a (more or less) 'large supercell' and for larger cells it     |
|     might be more efficient to use real-space projection operators.         |
|     Therefore, try LREAL= Auto in the INCAR file.                           |
|     Mind: For very accurate calculation, you might also keep the            |
|     reciprocal projection scheme (i.e. LREAL=.FALSE.).                      |
|                                                                             |
 -----------------------------------------------------------------------------

  PAW_PBE Ag 02Apr2005                  :
 energy of atom  1       EATOM=-1037.2675
 kinetic energy error for atom=    0.0686 (will be added to EATOM!!)
  PAW_PBE Bi 08Apr2002                  :
 energy of atom  2       EATOM= -150.8133
 kinetic energy error for atom=    0.0004 (will be added to EATOM!!)
  PAW_PBE I 08Apr2002                   :
 energy of atom  3       EATOM= -315.8678
 kinetic energy error for atom=    0.0044 (will be added to EATOM!!)
 
 
 POSCAR: Generation Seed Number
  positions in direct lattice
  velocities in cartesian coordinates
 exchange correlation table for  LEXCH =        8
   RHO(1)=    0.500       N(1)  =     2000
   RHO(2)=  100.500       N(2)  =     4000
 


--------------------------------------------------------------------------------------------------------


 ion  position               nearest neighbor table
   1  0.276  0.224  0.000-  41 2.95  42 2.95  17 2.96  29 2.96
   2  0.975  0.525  0.500-  36 2.96  35 2.96  28 2.97  24 2.97
   3  0.989  0.755  0.725-  48 2.94  28 2.98  34 3.06  36 3.13  44 3.19  27 3.59
   4  0.260  0.995  0.225-  37 2.94  17 2.98  43 3.08  33 3.14  41 3.16  18 3.58
   5  0.747  0.998  0.748-  48 3.02  38 3.03  46 3.06  34 3.09  22 3.25  21 3.29
   6  0.745  0.512  0.275-  47 2.94  24 2.98  39 3.06  35 3.13  45 3.20  23 3.58
   7  0.502  0.753  0.247-  47 3.02  37 3.03  43 3.06  39 3.09  31 3.23  32 3.31
   8  0.505  0.240  0.775-  38 2.94  29 2.98  46 3.08  40 3.14  42 3.16  30 3.58
   9  0.001  0.998  0.996-  34 3.03  17 3.06  27 3.13  25 3.14  33 3.20  21 3.20
  10  0.502  0.499  0.004-  39 3.03  29 3.06  23 3.12  19 3.14  40 3.20  31 3.20
  11  0.750  0.750  0.000-  21 3.11  48 3.11  47 3.11  31 3.12  27 3.14  23 3.14
  12  0.002  0.252  0.250-  41 3.07  35 3.07  25 3.14  26 3.14  45 3.18  33 3.18
  13  0.499  0.000  0.500-  32 3.11  37 3.11  38 3.11  22 3.12  18 3.14  30 3.14
  14  0.248  0.498  0.750-  42 3.07  36 3.07  19 3.14  20 3.14  44 3.18  40 3.19
  15  0.749  0.251  0.504-  46 3.04  24 3.06  30 3.13  26 3.14  45 3.19  22 3.20
  16  0.249  0.751  0.497-  43 3.04  28 3.06  18 3.13  20 3.14  44 3.19  32 3.20
  17  0.241  0.994  0.992-   1 2.96   4 2.98   9 3.06
  18  0.253  0.997  0.507-  16 3.13  13 3.14   4 3.58
  19  0.255  0.511  0.996-  14 3.14  10 3.14
  20  0.260  0.505  0.504-  14 3.14  16 3.14
  21  0.750  0.995  0.007-  11 3.11   9 3.20   5 3.29
  22  0.744  0.999  0.493-  13 3.12  15 3.20   5 3.25
  23  0.747  0.504  0.993-  10 3.12  11 3.14   6 3.58
  24  0.745  0.491  0.508-   2 2.97   6 2.98  15 3.06
  25  0.989  0.245  0.004-  12 3.14   9 3.14
  26  0.995  0.240  0.496-  12 3.14  15 3.14
  27  0.996  0.753  0.007-   9 3.13  11 3.14   3 3.59
  28  0.009  0.755  0.492-   2 2.97   3 2.98  16 3.06
  29  0.506  0.259  0.009-   1 2.96   8 2.98  10 3.06
  30  0.503  0.247  0.494-  15 3.13  13 3.14   8 3.58
  31  0.505  0.750  0.993-  11 3.12  10 3.20   7 3.23
  32  0.500  0.756  0.507-  13 3.11  16 3.20   7 3.31
  33  0.014  0.002  0.247-   4 3.14  12 3.18   9 3.20
  34  0.990  0.994  0.758-   9 3.03   3 3.06   5 3.09
  35  0.989  0.492  0.270-   2 2.96  12 3.07   6 3.13
  36  0.008  0.510  0.730-   2 2.96  14 3.07   3 3.13
  37  0.488  0.991  0.256-   4 2.94   7 3.03  13 3.11
  38  0.509  0.011  0.744-   8 2.94   5 3.03  13 3.11
  39  0.507  0.510  0.242-  10 3.03   6 3.06   7 3.09
  40  0.498  0.486  0.753-   8 3.14  14 3.19  10 3.20
  41  0.242  0.242  0.229-   1 2.95  12 3.07   4 3.16
  42  0.258  0.258  0.771-   1 2.95  14 3.07   8 3.16
  43  0.262  0.755  0.258-  16 3.04   7 3.06   4 3.08
  44  0.238  0.748  0.747-  14 3.18   3 3.19  16 3.19
  45  0.752  0.261  0.253-  12 3.18  15 3.19   6 3.20
  46  0.745  0.238  0.742-  15 3.04   5 3.06   8 3.08
  47  0.739  0.741  0.244-   6 2.94   7 3.02  11 3.11
  48  0.760  0.761  0.756-   3 2.94   5 3.02  11 3.11
 
 -----------------------------------------------------------------------------
|                                                                             |
|           W    W    AA    RRRRR   N    N  II  N    N   GGGG   !!!           |
|           W    W   A  A   R    R  NN   N  II  NN   N  G    G  !!!           |
|           W    W  A    A  R    R  N N  N  II  N N  N  G       !!!           |
|           W WW W  AAAAAA  RRRRR   N  N N  II  N  N N  G  GGG   !            |
|           WW  WW  A    A  R   R   N   NN  II  N   NN  G    G                |
|           W    W  A    A  R    R  N    N  II  N    N   GGGG   !!!           |
|                                                                             |
|     The determination of the symmetry of your systems shows a strong        |
|     dependence on the tolerance parameter SYMPREC. This is often the        |
|     result of "noise" in the structural parameters (lattice vectors         |
|     and/or ionic positions). Set NWRITE=3 for more details.                 |
|                                                                             |
 -----------------------------------------------------------------------------

  LATTYP: Found a base centered monoclinic cell.
 ALAT       =    59.6923164437
 B/A-ratio  =     0.3014819108
 C/A-ratio  =     0.6396106065
 COS(beta)  =    -0.9949349839
  
  Lattice vectors:
  
 A1 = ( -12.7248886948,  12.7275733946,  25.4528087192)
 A2 = ( -12.7250208167,  25.4527205981,  12.7275514009)
 A3 = (  12.7240202824, -25.4537833703, -25.4539644220)


Analysis of symmetry for initial positions (statically):
=====================================================================
 Subroutine PRICEL returns:
 Original cell was already a primitive cell.
 

 Routine SETGRP: Setting up the symmetry group for a 
 base centered monoclinic supercell.


 Subroutine GETGRP returns: Found  1 space group operations
 (whereof  1 operations were pure point group operations)
 out of a pool of  4 trial point group operations.


The static configuration has the point symmetry C_1 .


Analysis of symmetry for dynamics (positions and initial velocities):
=====================================================================
 Subroutine PRICEL returns:
 Original cell was already a primitive cell.
 

 Routine SETGRP: Setting up the symmetry group for a 
 base centered monoclinic supercell.


 Subroutine GETGRP returns: Found  1 space group operations
 (whereof  1 operations were pure point group operations)
 out of a pool of  4 trial point group operations.


The dynamic configuration has the point symmetry C_1 .


 Subroutine INISYM returns: Found  1 space group operations
 (whereof  1 operations are pure point group operations),
 and found     1 'primitive' translations


----------------------------------------------------------------------------------------

                                     Primitive cell                                     

  volume of cell :    2061.3750

  direct lattice vectors                    reciprocal lattice vectors
    12.727758176  0.000762125  0.001173026     0.078568433 -0.000005361 -0.000006177
     0.000868412 12.726209976  0.001155703    -0.000004705  0.078577991 -0.000006562
     0.001000534  0.001062772 12.726413021    -0.000007241 -0.000007135  0.078576737

  length of vectors
    12.727758253 12.726210058 12.726413105     0.078568433  0.078577991  0.078576738

  position of ions in fractional coordinates (direct lattice)
     0.275766403  0.224236486  0.000209457
     0.975329935  0.524641131  0.500168148
     0.988578324  0.755206683  0.725123452
     0.259529837  0.994588933  0.225407018
     0.746902495  0.997817927  0.748260724
     0.744763853  0.511958359  0.274965628
     0.501718596  0.753380517  0.247173217
     0.505459033  0.240240444  0.774689461
     0.001097552  0.998479342  0.996226143
     0.501701241  0.498631756  0.003958437
     0.749929151  0.750447778  0.000143104
     0.001799912  0.252024384  0.249881566
     0.499483559  0.000131253  0.500144608
     0.247972621  0.498080258  0.750416180
     0.748643707  0.250790961  0.503508728
     0.249353922  0.751183152  0.496667164
     0.241383989  0.994133182  0.991703370
     0.253175586  0.996678917  0.506648440
     0.255048883  0.510557355  0.996448565
     0.259914325  0.504654538  0.504039252
     0.749985831  0.994866860  0.007063345
     0.744307945  0.999466143  0.493263629
     0.746857483  0.503761784  0.993412195
     0.744542761  0.490956591  0.508218337
     0.989263778  0.245012724  0.003771026
     0.995283652  0.240154886  0.496169279
     0.996241395  0.753139713  0.006929543
     0.009013816  0.755344845  0.491874077
     0.505952911  0.258520952  0.008503952
     0.503319550  0.246781203  0.493609019
     0.505110581  0.750174916  0.993420391
     0.500230031  0.755684745  0.507452265
     0.013882665  0.002076478  0.247265060
     0.989503074  0.993623567  0.758211877
     0.989487323  0.492375896  0.270312603
     0.007681624  0.509981455  0.729897536
     0.488386436  0.990742936  0.255947645
     0.509211711  0.011397199  0.744359342
     0.506607987  0.510353843  0.242010249
     0.497935060  0.486300737  0.753021886
     0.242052918  0.242150123  0.229025583
     0.258136896  0.257846025  0.771266561
     0.261707304  0.754964241  0.258312374
     0.238060997  0.747926576  0.747087972
     0.752045471  0.261386585  0.253219073
     0.744879556  0.238361225  0.741899358
     0.738730687  0.740834694  0.244374236
     0.759594712  0.761138007  0.755921767

  ion indices of the primitive-cell ions
   primitive index   ion index
                 1           1
                 2           2
                 3           3
                 4           4
                 5           5
                 6           6
                 7           7
                 8           8
                 9           9
                10          10
                11          11
                12          12
                13          13
                14          14
                15          15
                16          16
                17          17
                18          18
                19          19
                20          20
                21          21
                22          22
                23          23
                24          24
                25          25
                26          26
                27          27
                28          28
                29          29
                30          30
                31          31
                32          32
                33          33
                34          34
                35          35
                36          36
                37          37
                38          38
                39          39
                40          40
                41          41
                42          42
                43          43
                44          44
                45          45
                46          46
                47          47
                48          48

----------------------------------------------------------------------------------------

 
 
 KPOINTS: agbii                                   

Automatic generation of k-mesh.
Space group operators:
 irot       det(A)        alpha          n_x          n_y          n_z        tau_x        tau_y        tau_z
    1     1.000000     0.000001     1.000000     0.000000     0.000000     0.000000     0.000000     0.000000
 TETIRR: Found    192 inequivalent tetrahedra from      384
 
 Subroutine IBZKPT returns following result:
 ===========================================
 
 Found     36 irreducible k-points:
 
 Following reciprocal coordinates:
            Coordinates               Weight
  0.000000  0.000000  0.000000      1.000000
  0.250000 -0.000000 -0.000000      2.000000
  0.500000 -0.000000  0.000000      1.000000
  0.000000  0.250000 -0.000000      2.000000
 -0.000000  0.000000 -0.250000      2.000000
  0.250000  0.250000  0.000000      2.000000
 -0.250000  0.000000 -0.250000      2.000000
  0.500000  0.250000 -0.000000      2.000000
  0.500000 -0.000000 -0.250000      2.000000
 -0.250000  0.250000  0.000000      2.000000
  0.250000 -0.000000 -0.250000      2.000000
  0.000000  0.500000  0.000000      1.000000
  0.000000 -0.000000  0.500000      1.000000
  0.250000  0.500000 -0.000000      2.000000
 -0.250000 -0.000000  0.500000      2.000000
  0.500000  0.500000 -0.000000      1.000000
  0.500000 -0.000000  0.500000      1.000000
  0.000000  0.250000  0.250000      2.000000
  0.250000  0.250000  0.250000      2.000000
  0.500000  0.250000  0.250000      2.000000
 -0.250000  0.250000  0.250000      2.000000
 -0.000000  0.500000  0.250000      2.000000
  0.000000 -0.250000  0.500000      2.000000
  0.250000  0.500000  0.250000      2.000000
 -0.250000 -0.250000  0.500000      2.000000
  0.500000  0.500000  0.250000      2.000000
  0.500000 -0.250000  0.500000      2.000000
 -0.250000  0.500000  0.250000      2.000000
  0.250000 -0.250000  0.500000      2.000000
  0.000000 -0.250000  0.250000      2.000000
  0.250000 -0.250000  0.250000      2.000000
 -0.250000 -0.250000  0.250000      2.000000
  0.500000 -0.250000  0.250000      2.000000
  0.000000  0.500000  0.500000      1.000000
  0.250000  0.500000  0.500000      2.000000
  0.500000  0.500000  0.500000      1.000000
 
 Following cartesian coordinates:
            Coordinates               Weight
  0.000000  0.000000  0.000000      1.000000
  0.019642 -0.000001 -0.000002      2.000000
  0.039284 -0.000003 -0.000003      1.000000
 -0.000001  0.019644 -0.000002      2.000000
  0.000002  0.000002 -0.019644      2.000000
  0.019641  0.019643 -0.000003      2.000000
 -0.019640  0.000003 -0.019643      2.000000
  0.039283  0.019642 -0.000005      2.000000
  0.039286 -0.000001 -0.019647      2.000000
 -0.019643  0.019646 -0.000000      2.000000
  0.019644  0.000000 -0.019646      2.000000
 -0.000002  0.039289 -0.000003      1.000000
 -0.000004 -0.000004  0.039288      1.000000
  0.019640  0.039288 -0.000005      2.000000
 -0.019646 -0.000002  0.039290      2.000000
  0.039282  0.039286 -0.000006      1.000000
  0.039281 -0.000006  0.039285      1.000000
 -0.000003  0.019643  0.019643      2.000000
  0.019639  0.019641  0.019641      2.000000
  0.039281  0.019640  0.019639      2.000000
 -0.019645  0.019644  0.019644      2.000000
 -0.000004  0.039287  0.019641      2.000000
 -0.000002 -0.019648  0.039290      2.000000
  0.019638  0.039286  0.019639      2.000000
 -0.019645 -0.019647  0.039292      2.000000
  0.039280  0.039285  0.019638      2.000000
  0.039282 -0.019651  0.039287      2.000000
 -0.019646  0.039289  0.019642      2.000000
  0.019640 -0.019649  0.039288      2.000000
 -0.000001 -0.019646  0.019646      2.000000
  0.019641 -0.019648  0.019644      2.000000
 -0.019643 -0.019645  0.019647      2.000000
  0.039284 -0.019649  0.019643      2.000000
 -0.000006  0.039285  0.039285      1.000000
  0.019636  0.039284  0.039284      2.000000
  0.039278  0.039283  0.039282      1.000000
 


--------------------------------------------------------------------------------------------------------




 Dimension of arrays:
   k-points           NKPTS =     36   k-points in BZ     NKDIM =     36   number of bands    NBANDS=    211
   number of dos      NEDOS =   3000   number of ions     NIONS =     48
   non local maximal  LDIM  =      6   non local SUM 2l+1 LMDIM =     18
   total plane-waves  NPLWV = 125000
   max r-space proj   IRMAX =      1   max aug-charges    IRDMAX=   5975
   dimension x,y,z NGX =    50 NGY =   50 NGZ =   50
   dimension x,y,z NGXF=   100 NGYF=  100 NGZF=  100
   support grid    NGXF=   100 NGYF=  100 NGZF=  100
   ions per type =               8   8  32
   NGX,Y,Z   is equivalent  to a cutoff of   6.53,  6.53,  6.53 a.u.
   NGXF,Y,Z  is equivalent  to a cutoff of  13.06, 13.06, 13.06 a.u.

 SYSTEM =  unknown system                          
 POSCAR =  Generation Seed Number                  

 Startparameter for this run:
   NWRITE =      2    write-flag & timer
   PREC   = normal    normal or accurate (medium, high low for compatibility)
   ISTART =      1    job   : 0-new  1-cont  2-samecut
   ICHARG =      1    charge: 1-file 2-atom 10-const
   ISPIN  =      1    spin polarized calculation?
   LNONCOLLINEAR =      F non collinear calculations
   LSORBIT =      F    spin-orbit coupling
   INIWAV =      1    electr: 0-lowe 1-rand  2-diag
   LASPH  =      F    aspherical Exc in radial PAW
   METAGGA=      F    non-selfconsistent MetaGGA calc.

 Electronic Relaxation 1
   ENCUT  =  250.0 eV  18.37 Ry    4.29 a.u.  16.41 16.41 16.41*2*pi/ulx,y,z
   ENINI  =  250.0     initial cutoff
   ENAUG  =  412.5 eV  augmentation charge cutoff
   NELM   =     60;   NELMIN=  2; NELMDL=  0     # of ELM steps 
   EDIFF  = 0.1E-05   stopping-criterion for ELM
   LREAL  =      F    real-space projection
   NLSPLINE    = F    spline interpolate recip. space projectors
   LCOMPAT=      F    compatible to vasp.4.4
   GGA_COMPAT  = T    GGA compatible to vasp.4.4-vasp.4.6
   LMAXPAW     = -100 max onsite density
   LMAXMIX     =    4 max onsite mixed and CHGCAR
   VOSKOWN=      0    Vosko Wilk Nusair interpolation
   ROPT   =    0.00000   0.00000   0.00000
 Ionic relaxation
   EDIFFG = -.1E-01   stopping-criterion for IOM
   NSW    =      0    number of steps for IOM
   NBLOCK =      1;   KBLOCK =      1    inner block; outer block 
   IBRION =     -1    ionic relax: 0-MD 1-quasi-New 2-CG
   NFREE  =      0    steps in history (QN), initial steepest desc. (CG)
   ISIF   =     -1    stress and relaxation
   IWAVPR =     10    prediction:  0-non 1-charg 2-wave 3-comb
   ISYM   =      2    0-nonsym 1-usesym 2-fastsym
   LCORR  =      T    Harris-Foulkes like correction to forces

   POTIM  = 0.5000    time-step for ionic-motion
   TEIN   =    0.0    initial temperature
   TEBEG  =    0.0;   TEEND  =   0.0 temperature during run
   SMASS  =  -3.00    Nose mass-parameter (am)
   estimated Nose-frequenzy (Omega)   =  0.10E-29 period in steps = 0.13E+47 mass=  -0.370E-26a.u.
   SCALEE = 1.0000    scale energy and forces
   NPACO  =    256;   APACO  = 16.0  distance and # of slots for P.C.
   PSTRESS=    0.0 pullay stress

  Mass of Ions in am
   POMASS = 107.87208.98126.90
  Ionic Valenz
   ZVAL   =  11.00  5.00  7.00
  Atomic Wigner-Seitz radii
   RWIGS  =  -1.00 -1.00 -1.00
  virtual crystal weights 
   VCA    =   1.00  1.00  1.00
   NELECT =     352.0000    total number of electrons
   NUPDOWN=      -1.0000    fix difference up-down

 DOS related values:
   EMIN   =  10.00;   EMAX   =-10.00  energy-range for DOS
   EFERMI =   0.00
   ISMEAR =    -5;   SIGMA  =   0.20  broadening in eV -4-tet -1-fermi 0-gaus

 Electronic relaxation 2 (details)
   IALGO  =     38    algorithm
   LDIAG  =      T    sub-space diagonalisation (order eigenvalues)
   LSUBROT=      F    optimize rotation matrix (better conditioning)
   TURBO    =      0    0=normal 1=particle mesh
   IRESTART =      0    0=no restart 2=restart with 2 vectors
   NREBOOT  =      0    no. of reboots
   NMIN     =      0    reboot dimension
   EREF     =   0.00    reference energy to select bands
   IMIX   =      4    mixing-type and parameters
     AMIX     =   0.40;   BMIX     =  1.00
     AMIX_MAG =   1.60;   BMIX_MAG =  1.00
     AMIN     =   0.10
     WC   =   100.;   INIMIX=   1;  MIXPRE=   1;  MAXMIX= -45

 Intra band minimization:
   WEIMIN = 0.0000     energy-eigenvalue tresh-hold
   EBREAK =  0.12E-08  absolut break condition
   DEPER  =   0.30     relativ break condition  

   TIME   =   0.40     timestep for ELM

  volume/ion in A,a.u.               =      42.95       289.81
  Fermi-wavevector in a.u.,A,eV,Ry     =   0.908246  1.716336 11.223587  0.824910
  Thomas-Fermi vector in A             =   2.032149
 
 Write flags
   LWAVE        =      T    write WAVECAR
   LDOWNSAMPLE  =      F    k-point downsampling of WAVECAR
   LCHARG       =      T    write CHGCAR
   LVTOT        =      F    write LOCPOT, total local potential
   LVHAR        =      F    write LOCPOT, Hartree potential only
   LELF         =      F    write electronic localiz. function (ELF)
   LORBIT       =     10    0 simple, 1 ext, 2 COOP (PROOUT), +10 PAW based schemes


 Dipole corrections
   LMONO  =      F    monopole corrections only (constant potential shift)
   LDIPOL =      F    correct potential (dipole corrections)
   IDIPOL =      0    1-x, 2-y, 3-z, 4-all directions 
   EPSILON=  1.0000000 bulk dielectric constant

 Exchange correlation treatment:
   GGA     =    --    GGA type
   LEXCH   =     8    internal setting for exchange type
   VOSKOWN=      0    Vosko Wilk Nusair interpolation
   LHFCALC =     F    Hartree Fock is set to
   LHFONE  =     F    Hartree Fock one center treatment
   AEXX    =    0.0000 exact exchange contribution

 Linear response parameters
   LEPSILON=     F    determine dielectric tensor
   LRPA    =     F    only Hartree local field effects (RPA)
   LNABLA  =     F    use nabla operator in PAW spheres
   LVEL    =     F    velocity operator in full k-point grid
   LINTERFAST=   F  fast interpolation
   KINTER  =     0    interpolate to denser k-point grid
   CSHIFT  =0.1000    complex shift for real part using Kramers Kronig
   OMEGAMAX=  -1.0    maximum frequency
   DEG_THRESHOLD= 0.2000000E-02 threshold for treating states as degnerate
   RTIME   =   -0.100 relaxation time in fs
  (WPLASMAI=    0.000 imaginary part of plasma frequency in eV, 0.658/RTIME)
   DFIELD  = 0.0000000 0.0000000 0.0000000 field for delta impulse in time
 
 Orbital magnetization related:
   ORBITALMAG=     F  switch on orbital magnetization
   LCHIMAG   =     F  perturbation theory with respect to B field
   DQ        =  0.001000  dq finite difference perturbation B field
   LLRAUG    =     F  two centre corrections for induced B field



--------------------------------------------------------------------------------------------------------


 Static calculation
 charge density and potential will be updated during run
 non-spin polarized calculation
 Variant of blocked Davidson
 Davidson routine will perform the subspace rotation
 perform sub-space diagonalisation
    after iterative eigenvector-optimisation
 modified Broyden-mixing scheme, WC =      100.0
 initial mixing is a Kerker type mixing with AMIX =  0.4000 and BMIX =      1.0000
 Hartree-type preconditioning will be used
 using additional bands           35
 reciprocal scheme for non local part
 use partial core corrections
 calculate Harris-corrections to forces 
   (improved forces if not selfconsistent)
 use gradient corrections 
 use of overlap-Matrix (Vanderbilt PP)
 Fermi weights with tetrahedron method with Bloechl corrections


--------------------------------------------------------------------------------------------------------


  energy-cutoff  :      250.00
  volume of cell :     2061.38
      direct lattice vectors                 reciprocal lattice vectors
    12.727758176  0.000762125  0.001173026     0.078568433 -0.000005361 -0.000006177
     0.000868412 12.726209976  0.001155703    -0.000004705  0.078577991 -0.000006562
     0.001000534  0.001062772 12.726413021    -0.000007241 -0.000007135  0.078576737

  length of vectors
    12.727758253 12.726210058 12.726413105     0.078568433  0.078577991  0.078576738


 
 old parameters found on file WAVECAR:
  energy-cutoff  :      250.00
  volume of cell :     2061.38
      direct lattice vectors                 reciprocal lattice vectors
    12.727758176  0.000762125  0.001173026     0.078568433 -0.000005361 -0.000006177
     0.000868412 12.726209976  0.001155703    -0.000004705  0.078577991 -0.000006562
     0.001000534  0.001062772 12.726413021    -0.000007241 -0.000007135  0.078576737

  length of vectors

 
 k-points in units of 2pi/SCALE and weight: agbii                                   
   0.00000000  0.00000000  0.00000000       0.016
   0.01964211 -0.00000134 -0.00000154       0.031
   0.03928422 -0.00000268 -0.00000309       0.016
  -0.00000118  0.01964450 -0.00000164       0.031
   0.00000181  0.00000178 -0.01964418       0.031
   0.01964093  0.01964316 -0.00000318       0.031
  -0.01964030  0.00000312 -0.01964264       0.031
   0.03928304  0.01964182 -0.00000473       0.031
   0.03928603 -0.00000090 -0.01964727       0.031
  -0.01964328  0.01964584 -0.00000010       0.031
   0.01964392  0.00000044 -0.01964573       0.031
  -0.00000235  0.03928900 -0.00000328       0.016
  -0.00000362 -0.00000357  0.03928837       0.016
   0.01963976  0.03928766 -0.00000482       0.031
  -0.01964573 -0.00000223  0.03928991       0.031
   0.03928186  0.03928632 -0.00000637       0.016
   0.03928060 -0.00000625  0.03928528       0.016
  -0.00000299  0.01964271  0.01964254       0.031
   0.01963912  0.01964137  0.01964100       0.031
   0.03928123  0.01964003  0.01963946       0.031
  -0.01964509  0.01964405  0.01964409       0.031
  -0.00000416  0.03928721  0.01964090       0.031
  -0.00000244 -0.01964807  0.03929001       0.031
   0.01963795  0.03928587  0.01963936       0.031
  -0.01964455 -0.01964673  0.03929155       0.031
   0.03928005  0.03928453  0.01963782       0.031
   0.03928177 -0.01965075  0.03928692       0.031
  -0.01964627  0.03928855  0.01964245       0.031
   0.01963966 -0.01964941  0.03928847       0.031
  -0.00000063 -0.01964628  0.01964582       0.031
   0.01964147 -0.01964762  0.01964428       0.031
  -0.01964274 -0.01964494  0.01964737       0.031
   0.03928358 -0.01964896  0.01964274       0.031
  -0.00000597  0.03928543  0.03928509       0.016
   0.01963614  0.03928409  0.03928354       0.031
   0.03927824  0.03928275  0.03928200       0.016
 
 k-points in reciprocal lattice and weights: agbii                                   
   0.00000000  0.00000000  0.00000000       0.016
   0.25000000 -0.00000000 -0.00000000       0.031
   0.50000000 -0.00000000  0.00000000       0.016
   0.00000000  0.25000000 -0.00000000       0.031
  -0.00000000  0.00000000 -0.25000000       0.031
   0.25000000  0.25000000  0.00000000       0.031
  -0.25000000  0.00000000 -0.25000000       0.031
   0.50000000  0.25000000 -0.00000000       0.031
   0.50000000 -0.00000000 -0.25000000       0.031
  -0.25000000  0.25000000  0.00000000       0.031
   0.25000000 -0.00000000 -0.25000000       0.031
   0.00000000  0.50000000  0.00000000       0.016
   0.00000000 -0.00000000  0.50000000       0.016
   0.25000000  0.50000000 -0.00000000       0.031
  -0.25000000 -0.00000000  0.50000000       0.031
   0.50000000  0.50000000 -0.00000000       0.016
   0.50000000 -0.00000000  0.50000000       0.016
   0.00000000  0.25000000  0.25000000       0.031
   0.25000000  0.25000000  0.25000000       0.031
   0.50000000  0.25000000  0.25000000       0.031
  -0.25000000  0.25000000  0.25000000       0.031
  -0.00000000  0.50000000  0.25000000       0.031
   0.00000000 -0.25000000  0.50000000       0.031
   0.25000000  0.50000000  0.25000000       0.031
  -0.25000000 -0.25000000  0.50000000       0.031
   0.50000000  0.50000000  0.25000000       0.031
   0.50000000 -0.25000000  0.50000000       0.031
  -0.25000000  0.50000000  0.25000000       0.031
   0.25000000 -0.25000000  0.50000000       0.031
   0.00000000 -0.25000000  0.25000000       0.031
   0.25000000 -0.25000000  0.25000000       0.031
  -0.25000000 -0.25000000  0.25000000       0.031
   0.50000000 -0.25000000  0.25000000       0.031
   0.00000000  0.50000000  0.50000000       0.016
   0.25000000  0.50000000  0.50000000       0.031
   0.50000000  0.50000000  0.50000000       0.016
 
 position of ions in fractional coordinates (direct lattice) 
   0.27576640  0.22423649  0.00020946
   0.97532994  0.52464113  0.50016815
   0.98857832  0.75520668  0.72512345
   0.25952984  0.99458893  0.22540702
   0.74690249  0.99781793  0.74826072
   0.74476385  0.51195836  0.27496563
   0.50171860  0.75338052  0.24717322
   0.50545903  0.24024044  0.77468946
   0.00109755  0.99847934  0.99622614
   0.50170124  0.49863176  0.00395844
   0.74992915  0.75044778  0.00014310
   0.00179991  0.25202438  0.24988157
   0.49948356  0.00013125  0.50014461
   0.24797262  0.49808026  0.75041618
   0.74864371  0.25079096  0.50350873
   0.24935392  0.75118315  0.49666716
   0.24138399  0.99413318  0.99170337
   0.25317559  0.99667892  0.50664844
   0.25504888  0.51055735  0.99644856
   0.25991433  0.50465454  0.50403925
   0.74998583  0.99486686  0.00706334
   0.74430794  0.99946614  0.49326363
   0.74685748  0.50376178  0.99341219
   0.74454276  0.49095659  0.50821834
   0.98926378  0.24501272  0.00377103
   0.99528365  0.24015489  0.49616928
   0.99624140  0.75313971  0.00692954
   0.00901382  0.75534484  0.49187408
   0.50595291  0.25852095  0.00850395
   0.50331955  0.24678120  0.49360902
   0.50511058  0.75017492  0.99342039
   0.50023003  0.75568475  0.50745227
   0.01388267  0.00207648  0.24726506
   0.98950307  0.99362357  0.75821188
   0.98948732  0.49237590  0.27031260
   0.00768162  0.50998146  0.72989754
   0.48838644  0.99074294  0.25594764
   0.50921171  0.01139720  0.74435934
   0.50660799  0.51035384  0.24201025
   0.49793506  0.48630074  0.75302189
   0.24205292  0.24215012  0.22902558
   0.25813690  0.25784602  0.77126656
   0.26170730  0.75496424  0.25831237
   0.23806100  0.74792658  0.74708797
   0.75204547  0.26138659  0.25321907
   0.74487956  0.23836122  0.74189936
   0.73873069  0.74083469  0.24437424
   0.75959471  0.76113801  0.75592177
 
 position of ions in cartesian coordinates  (Angst):
   3.51008303  2.85389099  0.00324827
  12.41471960  6.67796808  6.36709684
  12.58376719  9.61244288  9.23025296
   3.30432225 12.65778495  2.87007670
   9.50800951 12.69980492  9.52470434
   9.47989393  6.51614940  3.50079145
   6.38665451  9.58832371  3.14708766
   6.43434407  3.05855888  9.85988861
   0.01583323 12.70791736 12.67954059
   6.38596905  6.34607899  0.05154148
   9.54556872  9.55092770  0.00356818
   0.02337772  3.20758217  3.18038940
   6.35780647  0.00258257  6.36563291
   3.15731891  6.33966045  9.55097275
   9.52927763  3.19272411  6.40902805
   3.17486569  9.56043241  6.32195210
   3.07413259 12.65278554 12.62225876
   3.22373008 12.68467659  6.44926615
   3.24764086  6.49871348 12.68210522
   3.30906924  6.42307338  6.41549982
   9.54650932 12.66146365  0.09192056
   9.47473300 12.72050748  6.27950485
   9.50725285  6.41260322 12.64403218
   9.47729506  6.24912423  6.46923723
  12.59132669  3.11884132  0.04943523
  12.66843463  3.05754736  6.31590021
  12.68058054  9.58538075  0.09022724
   0.11587376  9.61320672  6.26067618
   6.43987932  3.29038656  0.10911707
   6.40683769  3.14149759  6.28274786
   6.43057075  9.54832424 12.64413769
   6.36797083  9.61792329  6.45950725
   0.17694441  0.02669907  3.14681596
  12.59577734 12.64662208  9.65162656
  12.59465341  6.26712043  3.44183956
   0.09894302  6.49091265  9.28957590
   6.21718091 12.60904687  3.25901333
   6.48187817  0.14622231  9.47363491
   6.44866929  6.49551347  3.08110647
   6.33877277  6.18994507  9.58441365
   3.08123043  3.08208118  2.91523796
   3.28649958  3.28241906  9.81605760
   3.33186135  9.60830744  3.28856946
   3.03137980  9.51924607  9.50889373
   9.57233323  3.32730284  3.22375476
   9.48159615  3.03479116  9.44286688
   9.40327339  9.42884060  3.11173020
   9.66935512  9.68778438  9.62194329
 


--------------------------------------------------------------------------------------------------------


 k-point   1 :   0.0000 0.0000 0.0000  plane waves:   18613
 k-point   2 :   0.2500-0.0000-0.0000  plane waves:   18533
 k-point   3 :   0.5000-0.0000 0.0000  plane waves:   18480
 k-point   4 :   0.0000 0.2500-0.0000  plane waves:   18533
 k-point   5 :  -0.0000 0.0000-0.2500  plane waves:   18533
 k-point   6 :   0.2500 0.2500 0.0000  plane waves:   18509
 k-point   7 :  -0.2500 0.0000-0.2500  plane waves:   18509
 k-point   8 :   0.5000 0.2500-0.0000  plane waves:   18506
 k-point   9 :   0.5000-0.0000-0.2500  plane waves:   18506
 k-point  10 :  -0.2500 0.2500 0.0000  plane waves:   18509
 k-point  11 :   0.2500-0.0000-0.2500  plane waves:   18509
 k-point  12 :   0.0000 0.5000 0.0000  plane waves:   18488
 k-point  13 :   0.0000-0.0000 0.5000  plane waves:   18484
 k-point  14 :   0.2500 0.5000-0.0000  plane waves:   18506
 k-point  15 :  -0.2500-0.0000 0.5000  plane waves:   18506
 k-point  16 :   0.5000 0.5000-0.0000  plane waves:   18528
 k-point  17 :   0.5000-0.0000 0.5000  plane waves:   18528
 k-point  18 :   0.0000 0.2500 0.2500  plane waves:   18509
 k-point  19 :   0.2500 0.2500 0.2500  plane waves:   18506
 k-point  20 :   0.5000 0.2500 0.2500  plane waves:   18478
 k-point  21 :  -0.2500 0.2500 0.2500  plane waves:   18516
 k-point  22 :  -0.0000 0.5000 0.2500  plane waves:   18506
 k-point  23 :   0.0000-0.2500 0.5000  plane waves:   18506
 k-point  24 :   0.2500 0.5000 0.2500  plane waves:   18478
 k-point  25 :  -0.2500-0.2500 0.5000  plane waves:   18478
 k-point  26 :   0.5000 0.5000 0.2500  plane waves:   18500
 k-point  27 :   0.5000-0.2500 0.5000  plane waves:   18500
 k-point  28 :  -0.2500 0.5000 0.2500  plane waves:   18478
 k-point  29 :   0.2500-0.2500 0.5000  plane waves:   18478
 k-point  30 :   0.0000-0.2500 0.2500  plane waves:   18509
 k-point  31 :   0.2500-0.2500 0.2500  plane waves:   18522
 k-point  32 :  -0.2500-0.2500 0.2500  plane waves:   18525
 k-point  33 :   0.5000-0.2500 0.2500  plane waves:   18478
 k-point  34 :   0.0000 0.5000 0.5000  plane waves:   18528
 k-point  35 :   0.2500 0.5000 0.5000  plane waves:   18500
 k-point  36 :   0.5000 0.5000 0.5000  plane waves:   18504

 maximum and minimum number of plane-waves per node :     18613    18478

 maximum number of plane-waves:     18613
 maximum index in each direction: 
   IXMAX=   16   IYMAX=   16   IZMAX=   16
   IXMIN=  -16   IYMIN=  -16   IZMIN=  -16


 serial   3D FFT for wavefunctions
 parallel 3D FFT for charge:
    minimum data exchange during FFTs selected (reduces bandwidth)


 total amount of memory used by VASP MPI-rank0  2782079. kBytes
=======================================================================

   base      :      30000. kBytes
   nonl-proj :     303764. kBytes
   fftplans  :      34720. kBytes
   grid      :      70000. kBytes
   one-center:        746. kBytes
   wavefun   :    2342849. kBytes
 
     INWAV:  cpu time    4.5301: real time    4.6464
 Broyden mixing: mesh for mixing (old mesh)
   NGX = 33   NGY = 33   NGZ = 33
  (NGX  =100   NGY  =100   NGZ  =100)
  gives a total of  35937 points

 initial charge density was supplied:
 number of electron     352.0000595 magnetization 
 keeping initial charge density in first step


--------------------------------------------------------------------------------------------------------


 Maximum index for augmentation-charges         5609 (set IRDMAX)


--------------------------------------------------------------------------------------------------------


 First call to EWALD:  gamma=   0.139
 Maximum number of real-space cells 3x 3x 3
 Maximum number of reciprocal cells 3x 3x 3

    FEWALD:  cpu time    0.0026: real time    0.0026


--------------------------------------- Iteration      1(   1)  ---------------------------------------


    POTLOK:  cpu time    0.5795: real time    0.5941
    SETDIJ:  cpu time    0.0276: real time    0.0276
     EDDAV:  cpu time   61.4428: real time   61.4790
 BZINTS: Fermi energy:    2.053524;  352.000000 electrons
         Band energy:-0.758813E+03;  BLOECHL correction:   -0.000000
       DOS:  cpu time    0.0583: real time    0.0583
    CHARGE:  cpu time    1.2108: real time    1.2108
    MIXING:  cpu time    0.0286: real time    0.0285
    --------------------------------------------
      LOOP:  cpu time   63.3477: real time   63.3985

 eigenvalue-minimisations  : 11192
 total energy-change (2. order) :-0.1199644E+03  (-0.3295857E-06)
 number of electron     352.0000595 magnetization 
 augmentation part      -23.1220144 magnetization 

 Broyden mixing:
  rms(total) = 0.67450E-03    rms(broyden)= 0.67446E-03
  rms(prec ) = 0.80117E-03
  weight for this iteration     100.00

 Free energy of the ion-electron system (eV)
  ---------------------------------------------------
  alpha Z        PSCENC =       225.91636414
  Ewald energy   TEWEN  =    -13869.05583950
  -Hartree energ DENC   =     -6079.85255320
  -exchange      EXHF   =         0.00000000
  -V(xc)+E(xc)   XCENC  =     -1392.37265004
  PAW double counting   =     22638.86332385   -20496.37380883
  entropy T*S    EENTRO =         0.00000000
  eigenvalues    EBANDS =      -758.81299589
  atomic energy  EATOM  =     19611.72375700
  Solvation  Ediel_sol  =         0.00000000
  ---------------------------------------------------
  free energy    TOTEN  =      -119.96440248 eV

  energy without entropy =     -119.96440248  energy(sigma->0) =     -119.96440248


--------------------------------------------------------------------------------------------------------




--------------------------------------- Iteration      1(   2)  ---------------------------------------


    POTLOK:  cpu time    0.5621: real time    0.5622
    SETDIJ:  cpu time    0.0553: real time    0.0553
     EDDAV:  cpu time   49.9413: real time   49.9425
 BZINTS: Fermi energy:    2.053592;  352.000000 electrons
         Band energy:-0.758810E+03;  BLOECHL correction:   -0.000000
       DOS:  cpu time    0.0552: real time    0.0551
    --------------------------------------------
      LOOP:  cpu time   50.6138: real time   50.6151

 eigenvalue-minimisations  :  8208
 total energy-change (2. order) : 0.1711305E-06  (-0.1322305E-06)
 number of electron     352.0000595 magnetization 
 augmentation part      -23.1220144 magnetization 

 Free energy of the ion-electron system (eV)
  ---------------------------------------------------
  alpha Z        PSCENC =       225.91636414
  Ewald energy   TEWEN  =    -13869.05583950
  -Hartree energ DENC   =     -6079.85484385
  -exchange      EXHF   =         0.00000000
  -V(xc)+E(xc)   XCENC  =     -1392.37216796
  PAW double counting   =     22638.42965200   -20495.94091841
  entropy T*S    EENTRO =         0.00000000
  eigenvalues    EBANDS =      -758.81040573
  atomic energy  EATOM  =     19611.72375700
  Solvation  Ediel_sol  =         0.00000000
  ---------------------------------------------------
  free energy    TOTEN  =      -119.96440231 eV

  energy without entropy =     -119.96440231  energy(sigma->0) =     -119.96440231


--------------------------------------------------------------------------------------------------------




 average (electrostatic) potential at core
  the test charge radii are     1.1249  1.4024  1.1875
  (the norm of the test charge is              1.0000)
       1 -75.1911       2 -75.1903       3 -75.0689       4 -75.0622       5 -75.0028
       6 -75.0693       7 -75.0036       8 -75.0613       9 -65.5352      10 -65.5366
      11 -65.5111      12 -65.4773      13 -65.5050      14 -65.4778      15 -65.5307
      16 -65.5301      17 -93.2302      18 -93.3370      19 -93.3196      20 -93.3241
      21 -93.3164      22 -93.3228      23 -93.3387      24 -93.2327      25 -93.3204
      26 -93.3230      27 -93.3434      28 -93.2272      29 -93.2350      30 -93.3322
      31 -93.3299      32 -93.3087      33 -93.1968      34 -93.0792      35 -93.0991
      36 -93.0970      37 -93.0033      38 -92.9995      39 -93.0779      40 -93.1963
      41 -93.0784      42 -93.0804      43 -93.0765      44 -93.1791      45 -93.1764
      46 -93.0727      47 -93.0110      48 -93.0143
 
 
 
 E-fermi :   2.0536     XC(G=0):  -7.7999     alpha+bet : -7.7648


 k-point     1 :       0.0000    0.0000    0.0000
  band No.  band energies     occupation 
      1     -10.8457      2.00000
      2     -10.7168      2.00000
      3     -10.6705      2.00000
      4     -10.5353      2.00000
      5     -10.4829      2.00000
      6     -10.2570      2.00000
      7     -10.2233      2.00000
      8     -10.0425      2.00000
      9      -9.8911      2.00000
     10      -9.8836      2.00000
     11      -9.8695      2.00000
     12      -9.8515      2.00000
     13      -9.8436      2.00000
     14      -9.8087      2.00000
     15      -9.8065      2.00000
     16      -9.7425      2.00000
     17      -9.7310      2.00000
     18      -9.7165      2.00000
     19      -9.7074      2.00000
     20      -9.7046      2.00000
     21      -9.6846      2.00000
     22      -9.6589      2.00000
     23      -9.6541      2.00000
     24      -9.6274      2.00000
     25      -9.6146      2.00000
     26      -9.6053      2.00000
     27      -9.5896      2.00000
     28      -9.5627      2.00000
     29      -9.5546      2.00000
     30      -9.5518      2.00000
     31      -9.5438      2.00000
     32      -9.5116      2.00000
     33      -8.2252      2.00000
     34      -8.1258      2.00000
     35      -8.1144      2.00000
     36      -7.8838      2.00000
     37      -7.8586      2.00000
     38      -7.6478      2.00000
     39      -7.6335      2.00000
     40      -7.6315      2.00000
     41      -1.8227      2.00000
     42      -1.7625      2.00000
     43      -1.7192      2.00000
     44      -1.7041      2.00000
     45      -1.6567      2.00000
     46      -1.5880      2.00000
     47      -1.5326      2.00000
     48      -1.4785      2.00000
     49      -1.4713      2.00000
     50      -1.4390      2.00000
     51      -1.4365      2.00000
     52      -1.3935      2.00000
     53      -1.3585      2.00000
     54      -1.3284      2.00000
     55      -1.3205      2.00000
     56      -1.2787      2.00000
     57      -1.2355      2.00000
     58      -1.2269      2.00000
     59      -1.1579      2.00000
     60      -1.1130      2.00000
     61      -1.1019      2.00000
     62      -1.0669      2.00000
     63      -1.0219      2.00000
     64      -1.0197      2.00000
     65      -1.0171      2.00000
     66      -1.0012      2.00000
     67      -0.9873      2.00000
     68      -0.9856      2.00000
     69      -0.9647      2.00000
     70      -0.9237      2.00000
     71      -0.9213      2.00000
     72      -0.9196      2.00000
     73      -0.8877      2.00000
     74      -0.8532      2.00000
     75      -0.8476      2.00000
     76      -0.8205      2.00000
     77      -0.8141      2.00000
     78      -0.8075      2.00000
     79      -0.7819      2.00000
     80      -0.7350      2.00000
     81      -0.7028      2.00000
     82      -0.6995      2.00000
     83      -0.6640      2.00000
     84      -0.6423      2.00000
     85      -0.6340      2.00000
     86      -0.6191      2.00000
     87      -0.5802      2.00000
     88      -0.5534      2.00000
     89      -0.5429      2.00000
     90      -0.5091      2.00000
     91      -0.4895      2.00000
     92      -0.4725      2.00000
     93      -0.4658      2.00000
     94      -0.4185      2.00000
     95      -0.4028      2.00000
     96      -0.3767      2.00000
     97      -0.3582      2.00000
     98      -0.3523      2.00000
     99      -0.3301      2.00000
    100      -0.3233      2.00000
    101      -0.2880      2.00000
    102      -0.2667      2.00000
    103      -0.2601      2.00000
    104      -0.2283      2.00000
    105      -0.2124      2.00000
    106      -0.2045      2.00000
    107      -0.1761      2.00000
    108      -0.1578      2.00000
    109      -0.1313      2.00000
    110      -0.1205      2.00000
    111      -0.0641      2.00000
    112      -0.0510      2.00000
    113       0.0749      2.00000
    114       0.1249      2.00000
    115       0.1636      2.00000
    116       0.1757      2.00000
    117       0.1813      2.00000
    118       0.2113      2.00000
    119       0.2342      2.00000
    120       0.2411      2.00000
    121       0.2527      2.00000
    122       0.2872      2.00000
    123       0.3513      2.00000
    124       0.3955      2.00000
    125       0.3972      2.00000
    126       0.4138      2.00000
    127       0.4774      2.00000
    128       0.5147      2.00000
    129       0.5253      2.00000
    130       0.5254      2.00000
    131       0.5401      2.00000
    132       0.5485      2.00000
    133       0.5826      2.00000
    134       0.6368      2.00000
    135       0.6900      2.00000
    136       0.7044      2.00000
    137       0.7093      2.00000
    138       0.7140      2.00000
    139       0.7246      2.00000
    140       0.7766      2.00000
    141       0.7848      2.00000
    142       0.7900      2.00000
    143       0.8192      2.00000
    144       0.8359      2.00000
    145       0.8446      2.00000
    146       0.8879      2.00000
    147       0.9369      2.00000
    148       0.9608      2.00000
    149       0.9873      2.00000
    150       1.0260      2.00000
    151       1.0625      2.00000
    152       1.0910      2.00000
    153       1.1013      2.00000
    154       1.1470      2.00000
    155       1.1607      2.00000
    156       1.1707      2.00000
    157       1.1929      2.00000
    158       1.2004      2.00000
    159       1.2377      2.00000
    160       1.3037      2.00000
    161       1.3563      2.00000
    162       1.3990      2.00000
    163       1.4544      2.00000
    164       1.4832      2.00000
    165       1.5308      2.00000
    166       1.5440      2.00000
    167       1.5701      2.00000
    168       1.5965      2.00000
    169       1.7542      2.00000
    170       1.7595      2.00000
    171       1.8714      2.00000
    172       1.8875      2.00000
    173       1.9983      2.00000
    174       2.0088      2.00000
    175       2.0248      2.00000
    176       2.0536      2.00000
    177       3.8329      0.00000
    178       3.9961      0.00000
    179       4.0028      0.00000
    180       4.1175      0.00000
    181       4.1558      0.00000
    182       4.3378      0.00000
    183       4.3384      0.00000
    184       4.3881      0.00000
    185       4.4178      0.00000
    186       4.4335      0.00000
    187       4.5141      0.00000
    188       4.5264      0.00000
    189       4.5517      0.00000
    190       4.5611      0.00000
    191       4.5954      0.00000
    192       4.6030      0.00000
    193       4.6403      0.00000
    194       4.6979      0.00000
    195       4.7283      0.00000
    196       4.7308      0.00000
    197       4.7938      0.00000
    198       4.8236      0.00000
    199       4.8298      0.00000
    200       4.9490      0.00000
    201       5.0695      0.00000
    202       5.2668      0.00000
    203       5.5770      0.00000
    204       5.7204      0.00000
    205       5.9101      0.00000
    206       5.9304      0.00000
    207       5.9447      0.00000
    208       5.9827      0.00000
    209       7.1540      0.00000
    210       7.2596      0.00000
    211       7.2698      0.00000

 k-point     2 :       0.2500   -0.0000   -0.0000
  band No.  band energies     occupation 
      1     -10.8308      2.00000
      2     -10.7224      2.00000
      3     -10.6910      2.00000
      4     -10.5326      2.00000
      5     -10.4795      2.00000
      6     -10.2555      2.00000
      7     -10.2124      2.00000
      8     -10.0533      2.00000
      9      -9.8955      2.00000
     10      -9.8910      2.00000
     11      -9.8759      2.00000
     12      -9.8525      2.00000
     13      -9.8459      2.00000
     14      -9.7991      2.00000
     15      -9.7878      2.00000
     16      -9.7452      2.00000
     17      -9.7319      2.00000
     18      -9.7175      2.00000
     19      -9.6993      2.00000
     20      -9.6953      2.00000
     21      -9.6914      2.00000
     22      -9.6604      2.00000
     23      -9.6478      2.00000
     24      -9.6336      2.00000
     25      -9.6106      2.00000
     26      -9.6081      2.00000
     27      -9.5846      2.00000
     28      -9.5684      2.00000
     29      -9.5570      2.00000
     30      -9.5527      2.00000
     31      -9.5416      2.00000
     32      -9.5174      2.00000
     33      -8.2304      2.00000
     34      -8.1233      2.00000
     35      -8.1134      2.00000
     36      -7.8828      2.00000
     37      -7.8589      2.00000
     38      -7.6794      2.00000
     39      -7.6317      2.00000
     40      -7.6019      2.00000
     41      -1.8010      2.00000
     42      -1.7475      2.00000
     43      -1.7182      2.00000
     44      -1.6899      2.00000
     45      -1.6503      2.00000
     46      -1.6097      2.00000
     47      -1.5617      2.00000
     48      -1.5468      2.00000
     49      -1.4947      2.00000
     50      -1.4512      2.00000
     51      -1.3959      2.00000
     52      -1.3854      2.00000
     53      -1.3501      2.00000
     54      -1.3228      2.00000
     55      -1.3000      2.00000
     56      -1.2728      2.00000
     57      -1.2258      2.00000
     58      -1.2026      2.00000
     59      -1.1791      2.00000
     60      -1.1313      2.00000
     61      -1.1177      2.00000
     62      -1.0854      2.00000
     63      -1.0520      2.00000
     64      -1.0348      2.00000
     65      -1.0193      2.00000
     66      -1.0003      2.00000
     67      -0.9780      2.00000
     68      -0.9671      2.00000
     69      -0.9476      2.00000
     70      -0.9358      2.00000
     71      -0.9160      2.00000
     72      -0.9050      2.00000
     73      -0.8872      2.00000
     74      -0.8731      2.00000
     75      -0.8385      2.00000
     76      -0.8191      2.00000
     77      -0.8130      2.00000
     78      -0.8093      2.00000
     79      -0.7639      2.00000
     80      -0.7545      2.00000
     81      -0.7061      2.00000
     82      -0.6827      2.00000
     83      -0.6622      2.00000
     84      -0.6494      2.00000
     85      -0.6310      2.00000
     86      -0.5930      2.00000
     87      -0.5825      2.00000
     88      -0.5552      2.00000
     89      -0.5129      2.00000
     90      -0.4987      2.00000
     91      -0.4804      2.00000
     92      -0.4742      2.00000
     93      -0.4438      2.00000
     94      -0.4194      2.00000
     95      -0.3995      2.00000
     96      -0.3897      2.00000
     97      -0.3742      2.00000
     98      -0.3686      2.00000
     99      -0.3440      2.00000
    100      -0.3160      2.00000
    101      -0.3047      2.00000
    102      -0.2839      2.00000
    103      -0.2278      2.00000
    104      -0.2245      2.00000
    105      -0.2103      2.00000
    106      -0.1804      2.00000
    107      -0.1622      2.00000
    108      -0.1595      2.00000
    109      -0.1478      2.00000
    110      -0.1344      2.00000
    111      -0.1021      2.00000
    112      -0.0539      2.00000
    113       0.0800      2.00000
    114       0.1091      2.00000
    115       0.1320      2.00000
    116       0.1468      2.00000
    117       0.1766      2.00000
    118       0.2265      2.00000
    119       0.2462      2.00000
    120       0.2636      2.00000
    121       0.2846      2.00000
    122       0.3347      2.00000
    123       0.3501      2.00000
    124       0.3554      2.00000
    125       0.4162      2.00000
    126       0.4447      2.00000
    127       0.4641      2.00000
    128       0.5089      2.00000
    129       0.5247      2.00000
    130       0.5532      2.00000
    131       0.5642      2.00000
    132       0.5915      2.00000
    133       0.5996      2.00000
    134       0.6245      2.00000
    135       0.6467      2.00000
    136       0.6848      2.00000
    137       0.6978      2.00000
    138       0.7177      2.00000
    139       0.7527      2.00000
    140       0.7594      2.00000
    141       0.7747      2.00000
    142       0.8118      2.00000
    143       0.8184      2.00000
    144       0.8304      2.00000
    145       0.8624      2.00000
    146       0.8953      2.00000
    147       0.9704      2.00000
    148       0.9871      2.00000
    149       0.9918      2.00000
    150       1.0092      2.00000
    151       1.0189      2.00000
    152       1.0769      2.00000
    153       1.1237      2.00000
    154       1.1480      2.00000
    155       1.1506      2.00000
    156       1.1536      2.00000
    157       1.1871      2.00000
    158       1.2075      2.00000
    159       1.2418      2.00000
    160       1.2927      2.00000
    161       1.3521      2.00000
    162       1.4067      2.00000
    163       1.4643      2.00000
    164       1.4791      2.00000
    165       1.5240      2.00000
    166       1.5480      2.00000
    167       1.5963      2.00000
    168       1.6181      2.00000
    169       1.7497      2.00000
    170       1.7631      2.00000
    171       1.8487      2.00000
    172       1.8741      2.00000
    173       1.9650      2.00000
    174       1.9734      2.00000
    175       2.0050      2.00000
    176       2.0158      2.00000
    177       3.8924      0.00000
    178       3.9830      0.00000
    179       4.0244      0.00000
    180       4.1385      0.00000
    181       4.1601      0.00000
    182       4.2966      0.00000
    183       4.3165      0.00000
    184       4.3883      0.00000
    185       4.4212      0.00000
    186       4.4436      0.00000
    187       4.4637      0.00000
    188       4.5024      0.00000
    189       4.5734      0.00000
    190       4.5800      0.00000
    191       4.5923      0.00000
    192       4.6210      0.00000
    193       4.6471      0.00000
    194       4.6545      0.00000
    195       4.6936      0.00000
    196       4.7536      0.00000
    197       4.7809      0.00000
    198       4.8213      0.00000
    199       4.8533      0.00000
    200       4.9279      0.00000
    201       5.1963      0.00000
    202       5.3512      0.00000
    203       5.5877      0.00000
    204       5.7324      0.00000
    205       5.8078      0.00000
    206       5.8282      0.00000
    207       5.9487      0.00000
    208       5.9625      0.00000
    209       7.2659      0.00000
    210       7.2996      0.00000
    211       7.3690      0.00000

 k-point     3 :       0.5000   -0.0000    0.0000
  band No.  band energies     occupation 
      1     -10.8071      2.00000
      2     -10.7463      2.00000
      3     -10.7004      2.00000
      4     -10.5311      2.00000
      5     -10.4765      2.00000
      6     -10.2554      2.00000
      7     -10.1997      2.00000
      8     -10.0635      2.00000
      9      -9.8997      2.00000
     10      -9.8983      2.00000
     11      -9.8800      2.00000
     12      -9.8540      2.00000
     13      -9.8476      2.00000
     14      -9.7883      2.00000
     15      -9.7705      2.00000
     16      -9.7462      2.00000
     17      -9.7388      2.00000
     18      -9.7129      2.00000
     19      -9.7022      2.00000
     20      -9.6974      2.00000
     21      -9.6737      2.00000
     22      -9.6685      2.00000
     23      -9.6440      2.00000
     24      -9.6218      2.00000
     25      -9.6181      2.00000
     26      -9.6146      2.00000
     27      -9.5817      2.00000
     28      -9.5773      2.00000
     29      -9.5559      2.00000
     30      -9.5507      2.00000
     31      -9.5349      2.00000
     32      -9.5295      2.00000
     33      -8.2356      2.00000
     34      -8.1222      2.00000
     35      -8.1106      2.00000
     36      -7.8825      2.00000
     37      -7.8590      2.00000
     38      -7.6962      2.00000
     39      -7.6292      2.00000
     40      -7.5878      2.00000
     41      -1.7647      2.00000
     42      -1.7454      2.00000
     43      -1.6967      2.00000
     44      -1.6728      2.00000
     45      -1.6600      2.00000
     46      -1.6411      2.00000
     47      -1.5915      2.00000
     48      -1.5711      2.00000
     49      -1.5222      2.00000
     50      -1.4500      2.00000
     51      -1.4216      2.00000
     52      -1.3832      2.00000
     53      -1.3149      2.00000
     54      -1.3080      2.00000
     55      -1.2904      2.00000
     56      -1.2554      2.00000
     57      -1.2369      2.00000
     58      -1.1917      2.00000
     59      -1.1806      2.00000
     60      -1.1640      2.00000
     61      -1.1526      2.00000
     62      -1.1048      2.00000
     63      -1.0499      2.00000
     64      -1.0176      2.00000
     65      -1.0174      2.00000
     66      -0.9946      2.00000
     67      -0.9674      2.00000
     68      -0.9544      2.00000
     69      -0.9439      2.00000
     70      -0.9371      2.00000
     71      -0.9303      2.00000
     72      -0.9036      2.00000
     73      -0.8707      2.00000
     74      -0.8606      2.00000
     75      -0.8457      2.00000
     76      -0.8334      2.00000
     77      -0.8106      2.00000
     78      -0.8058      2.00000
     79      -0.7830      2.00000
     80      -0.7670      2.00000
     81      -0.6977      2.00000
     82      -0.6713      2.00000
     83      -0.6588      2.00000
     84      -0.6361      2.00000
     85      -0.6334      2.00000
     86      -0.5934      2.00000
     87      -0.5719      2.00000
     88      -0.5228      2.00000
     89      -0.5100      2.00000
     90      -0.5044      2.00000
     91      -0.4911      2.00000
     92      -0.4741      2.00000
     93      -0.4322      2.00000
     94      -0.4235      2.00000
     95      -0.4049      2.00000
     96      -0.3850      2.00000
     97      -0.3594      2.00000
     98      -0.3536      2.00000
     99      -0.3426      2.00000
    100      -0.3333      2.00000
    101      -0.3120      2.00000
    102      -0.3037      2.00000
    103      -0.2327      2.00000
    104      -0.2100      2.00000
    105      -0.1913      2.00000
    106      -0.1808      2.00000
    107      -0.1674      2.00000
    108      -0.1639      2.00000
    109      -0.1497      2.00000
    110      -0.1235      2.00000
    111      -0.1200      2.00000
    112      -0.0594      2.00000
    113       0.0402      2.00000
    114       0.0519      2.00000
    115       0.0990      2.00000
    116       0.1445      2.00000
    117       0.1758      2.00000
    118       0.2104      2.00000
    119       0.2626      2.00000
    120       0.2837      2.00000
    121       0.3131      2.00000
    122       0.3837      2.00000
    123       0.4016      2.00000
    124       0.4164      2.00000
    125       0.4470      2.00000
    126       0.4558      2.00000
    127       0.4896      2.00000
    128       0.5100      2.00000
    129       0.5275      2.00000
    130       0.5412      2.00000
    131       0.5538      2.00000
    132       0.5712      2.00000
    133       0.5764      2.00000
    134       0.6364      2.00000
    135       0.6398      2.00000
    136       0.6517      2.00000
    137       0.7090      2.00000
    138       0.7187      2.00000
    139       0.7462      2.00000
    140       0.7544      2.00000
    141       0.7694      2.00000
    142       0.7941      2.00000
    143       0.8172      2.00000
    144       0.8733      2.00000
    145       0.8782      2.00000
    146       0.9196      2.00000
    147       0.9349      2.00000
    148       0.9701      2.00000
    149       0.9999      2.00000
    150       1.0334      2.00000
    151       1.0620      2.00000
    152       1.0649      2.00000
    153       1.0845      2.00000
    154       1.0913      2.00000
    155       1.1450      2.00000
    156       1.1634      2.00000
    157       1.1887      2.00000
    158       1.2313      2.00000
    159       1.2475      2.00000
    160       1.2704      2.00000
    161       1.3850      2.00000
    162       1.4082      2.00000
    163       1.4445      2.00000
    164       1.4649      2.00000
    165       1.5819      2.00000
    166       1.5849      2.00000
    167       1.5991      2.00000
[...]
    143       0.8502      2.00000
    144       0.8537      2.00000
    145       0.9176      2.00000
    146       0.9254      2.00000
    147       1.0122      2.00000
    148       1.0169      2.00000
    149       1.0369      2.00000
    150       1.0417      2.00000
    151       1.0715      2.00000
    152       1.0756      2.00000
    153       1.0955      2.00000
    154       1.0972      2.00000
    155       1.1616      2.00000
    156       1.1637      2.00000
    157       1.2051      2.00000
    158       1.2064      2.00000
    159       1.2613      2.00000
    160       1.2639      2.00000
    161       1.4403      2.00000
    162       1.4446      2.00000
    163       1.5721      2.00000
    164       1.5768      2.00000
    165       1.5806      2.00000
    166       1.5856      2.00000
    167       1.6740      2.00000
    168       1.6775      2.00000
    169       1.7498      2.00000
    170       1.7533      2.00000
    171       1.8309      2.00000
    172       1.8332      2.00000
    173       1.8645      2.00000
    174       1.8683      2.00000
    175       1.9816      2.00000
    176       1.9839      2.00000
    177       3.8006      0.00000
    178       3.8053      0.00000
    179       3.9864      0.00000
    180       3.9895      0.00000
    181       4.0997      0.00000
    182       4.1022      0.00000
    183       4.2507      0.00000
    184       4.2537      0.00000
    185       4.3195      0.00000
    186       4.3225      0.00000
    187       4.4215      0.00000
    188       4.4242      0.00000
    189       4.5969      0.00000
    190       4.5991      0.00000
    191       4.6736      0.00000
    192       4.6785      0.00000
    193       4.7672      0.00000
    194       4.7707      0.00000
    195       4.8158      0.00000
    196       4.8210      0.00000
    197       4.8810      0.00000
    198       4.8819      0.00000
    199       5.0107      0.00000
    200       5.0121      0.00000
    201       5.5503      0.00000
    202       5.5521      0.00000
    203       5.5895      0.00000
    204       5.5931      0.00000
    205       5.6286      0.00000
    206       5.6475      0.00000
    207       5.7841      0.00000
    208       5.7871      0.00000
    209       7.3219      0.00000
    210       7.3244      0.00000
    211       7.4928      0.00000

 k-point    36 :       0.5000    0.5000    0.5000
  band No.  band energies     occupation 
      1     -10.7724      2.00000
      2     -10.7683      2.00000
      3     -10.6421      2.00000
      4     -10.6416      2.00000
      5     -10.3852      2.00000
      6     -10.3844      2.00000
      7     -10.1189      2.00000
      8     -10.1149      2.00000
      9      -9.9086      2.00000
     10      -9.9064      2.00000
     11      -9.8217      2.00000
     12      -9.8171      2.00000
     13      -9.7927      2.00000
     14      -9.7916      2.00000
     15      -9.7514      2.00000
     16      -9.7508      2.00000
     17      -9.7300      2.00000
     18      -9.7267      2.00000
     19      -9.7067      2.00000
     20      -9.7017      2.00000
     21      -9.6979      2.00000
     22      -9.6952      2.00000
     23      -9.6398      2.00000
     24      -9.6325      2.00000
     25      -9.6159      2.00000
     26      -9.6125      2.00000
     27      -9.5879      2.00000
     28      -9.5841      2.00000
     29      -9.5536      2.00000
     30      -9.5503      2.00000
     31      -9.5407      2.00000
     32      -9.5395      2.00000
     33      -8.2028      2.00000
     34      -8.1999      2.00000
     35      -8.0077      2.00000
     36      -8.0057      2.00000
     37      -7.7670      2.00000
     38      -7.7657      2.00000
     39      -7.5904      2.00000
     40      -7.5865      2.00000
     41      -1.7857      2.00000
     42      -1.7800      2.00000
     43      -1.6778      2.00000
     44      -1.6772      2.00000
     45      -1.6341      2.00000
     46      -1.6323      2.00000
     47      -1.5411      2.00000
     48      -1.5394      2.00000
     49      -1.4920      2.00000
     50      -1.4906      2.00000
     51      -1.4608      2.00000
     52      -1.4579      2.00000
     53      -1.3796      2.00000
     54      -1.3790      2.00000
     55      -1.2888      2.00000
     56      -1.2876      2.00000
     57      -1.2709      2.00000
     58      -1.2703      2.00000
     59      -1.1440      2.00000
     60      -1.1376      2.00000
     61      -1.0499      2.00000
     62      -1.0450      2.00000
     63      -1.0139      2.00000
     64      -1.0083      2.00000
     65      -0.9993      2.00000
     66      -0.9902      2.00000
     67      -0.9703      2.00000
     68      -0.9661      2.00000
     69      -0.9207      2.00000
     70      -0.9109      2.00000
     71      -0.8880      2.00000
     72      -0.8849      2.00000
     73      -0.8715      2.00000
     74      -0.8695      2.00000
     75      -0.8450      2.00000
     76      -0.8440      2.00000
     77      -0.8323      2.00000
     78      -0.8266      2.00000
     79      -0.7472      2.00000
     80      -0.7454      2.00000
     81      -0.6973      2.00000
     82      -0.6939      2.00000
     83      -0.6272      2.00000
     84      -0.6234      2.00000
     85      -0.5927      2.00000
     86      -0.5875      2.00000
     87      -0.5523      2.00000
     88      -0.5520      2.00000
     89      -0.5235      2.00000
     90      -0.5185      2.00000
     91      -0.4815      2.00000
     92      -0.4790      2.00000
     93      -0.4095      2.00000
     94      -0.4048      2.00000
     95      -0.3854      2.00000
     96      -0.3826      2.00000
     97      -0.3630      2.00000
     98      -0.3588      2.00000
     99      -0.3170      2.00000
    100      -0.3119      2.00000
    101      -0.3087      2.00000
    102      -0.3050      2.00000
    103      -0.2602      2.00000
    104      -0.2548      2.00000
    105      -0.2120      2.00000
    106      -0.2088      2.00000
    107      -0.1900      2.00000
    108      -0.1847      2.00000
    109      -0.1482      2.00000
    110      -0.1462      2.00000
    111      -0.0872      2.00000
    112      -0.0837      2.00000
    113       0.0334      2.00000
    114       0.0367      2.00000
    115       0.1448      2.00000
    116       0.1470      2.00000
    117       0.2291      2.00000
    118       0.2356      2.00000
    119       0.2823      2.00000
    120       0.2855      2.00000
    121       0.3654      2.00000
    122       0.3668      2.00000
    123       0.3715      2.00000
    124       0.3720      2.00000
    125       0.4200      2.00000
    126       0.4207      2.00000
    127       0.4547      2.00000
    128       0.4564      2.00000
    129       0.5097      2.00000
    130       0.5152      2.00000
    131       0.5504      2.00000
    132       0.5532      2.00000
    133       0.5701      2.00000
    134       0.5787      2.00000
    135       0.6069      2.00000
    136       0.6073      2.00000
    137       0.6650      2.00000
    138       0.6699      2.00000
    139       0.6960      2.00000
    140       0.7060      2.00000
    141       0.7365      2.00000
    142       0.7420      2.00000
    143       0.8780      2.00000
    144       0.8801      2.00000
    145       0.9036      2.00000
    146       0.9130      2.00000
    147       1.0297      2.00000
    148       1.0344      2.00000
    149       1.0505      2.00000
    150       1.0557      2.00000
    151       1.0718      2.00000
    152       1.0743      2.00000
    153       1.0878      2.00000
    154       1.0881      2.00000
    155       1.1729      2.00000
    156       1.1742      2.00000
    157       1.2000      2.00000
    158       1.2012      2.00000
    159       1.2640      2.00000
    160       1.2673      2.00000
    161       1.4720      2.00000
    162       1.4772      2.00000
    163       1.5711      2.00000
    164       1.5766      2.00000
    165       1.5812      2.00000
    166       1.5833      2.00000
    167       1.6898      2.00000
    168       1.6938      2.00000
    169       1.7703      2.00000
    170       1.7721      2.00000
    171       1.8326      2.00000
    172       1.8347      2.00000
    173       1.8635      2.00000
    174       1.8644      2.00000
    175       2.0186      2.00000
    176       2.0197      2.00000
    177       3.7023      0.00000
    178       3.7062      0.00000
    179       3.9099      0.00000
    180       3.9132      0.00000
    181       4.0405      0.00000
    182       4.0430      0.00000
    183       4.2260      0.00000
    184       4.2284      0.00000
    185       4.3112      0.00000
    186       4.3152      0.00000
    187       4.4203      0.00000
    188       4.4215      0.00000
    189       4.6112      0.00000
    190       4.6140      0.00000
    191       4.6997      0.00000
    192       4.7023      0.00000
    193       4.8144      0.00000
    194       4.8198      0.00000
    195       4.8454      0.00000
    196       4.8474      0.00000
    197       4.9468      0.00000
    198       4.9486      0.00000
    199       5.0267      0.00000
    200       5.0290      0.00000
    201       5.5346      0.00000
    202       5.5353      0.00000
    203       5.5645      0.00000
    204       5.5655      0.00000
    205       5.5971      0.00000
    206       5.6190      0.00000
    207       5.7988      0.00000
    208       5.7997      0.00000
    209       7.2416      0.00000
    210       7.2439      0.00000
    211       7.5044      0.00000


--------------------------------------------------------------------------------------------------------


 soft charge-density along one line, spin component           1
         0         1         2         3         4         5         6         7         8         9
 total charge-density along one line
 
 pseudopotential strength for first ion, spin component:           1
 -6.527  -0.000  -0.004  -0.000   0.000  -6.659  -0.000  -0.004
 -0.000  -6.520  -0.001   0.003  -0.000  -0.000  -6.652  -0.001
 -0.004  -0.001  -6.514  -0.001   0.000  -0.004  -0.001  -6.646
 -0.000   0.003  -0.001  -6.520   0.000  -0.000   0.002  -0.001
  0.000  -0.000   0.000   0.000  -6.523   0.000  -0.000   0.000
 -6.659  -0.000  -0.004  -0.000   0.000  -6.760  -0.000  -0.004
 -0.000  -6.652  -0.001   0.002  -0.000  -0.000  -6.753  -0.001
 -0.004  -0.001  -6.646  -0.001   0.000  -0.004  -0.001  -6.748
 -0.000   0.002  -0.001  -6.652   0.000  -0.000   0.002  -0.001
  0.000  -0.000   0.000   0.000  -6.654   0.000  -0.000   0.000
  0.000  -0.000   0.002  -0.000   0.000   0.000  -0.000   0.002
  0.001  -0.000   0.003  -0.000  -0.000   0.001  -0.000   0.003
 -0.005   0.000  -0.004   0.000  -0.006  -0.005   0.000  -0.004
  0.000   0.005  -0.000  -0.005  -0.000   0.000   0.005  -0.000
  0.005   0.000   0.004  -0.000  -0.006   0.005   0.000   0.004
 -0.007   0.000  -0.005   0.000  -0.008  -0.007  -0.000  -0.004
  0.000   0.007  -0.000  -0.007  -0.000   0.000   0.006  -0.000
  0.007   0.000   0.005  -0.000  -0.008   0.007   0.000   0.004
 total augmentation occupancy for first ion, spin component:           1
  2.341   0.016  -0.280   0.017  -0.000  -0.335  -0.014   0.270  -0.014   0.001  -0.206   0.035   0.055   0.000  -0.055  -0.006
  0.016   2.424  -0.162  -0.031  -0.043  -0.014  -0.428   0.144   0.021   0.036   0.028  -0.005   0.021  -0.084  -0.002  -0.001
 -0.280  -0.162   4.374  -0.164   0.002   0.270   0.144  -2.246   0.146  -0.002  -0.435   0.063  -0.156  -0.001   0.156   0.006
  0.017  -0.031  -0.164   2.423   0.042  -0.014   0.021   0.146  -0.427  -0.034   0.031  -0.005   0.002   0.084  -0.021  -0.000
 -0.000  -0.043   0.002   0.042   3.573   0.001   0.036  -0.002  -0.034  -1.449   0.002  -0.000  -0.190  -0.024  -0.190   0.008
 -0.335  -0.014   0.270  -0.014   0.001   0.312   0.012  -0.261   0.012  -0.001   0.190  -0.042  -0.041  -0.000   0.040   0.003
 -0.014  -0.428   0.144   0.021   0.036   0.012   0.417  -0.129  -0.011  -0.029  -0.025   0.006  -0.019   0.068   0.001   0.001
  0.270   0.144  -2.246   0.146  -0.002  -0.261  -0.129   2.112  -0.131   0.002   0.389  -0.072   0.140   0.001  -0.139  -0.008
 -0.014   0.021   0.146  -0.427  -0.034   0.012  -0.011  -0.131   0.416   0.028  -0.028   0.006  -0.002  -0.068   0.019   0.000
  0.001   0.036  -0.002  -0.034  -1.449  -0.001  -0.029   0.002   0.028   1.320  -0.001   0.000   0.174   0.021   0.174  -0.011
 -0.206   0.028  -0.435   0.031   0.002   0.190  -0.025   0.389  -0.028  -0.001   1.494  -0.315  -0.046   0.000   0.046   0.004
  0.035  -0.005   0.063  -0.005  -0.000  -0.042   0.006  -0.072   0.006   0.000  -0.315   0.072   0.011  -0.000  -0.011  -0.001
  0.055   0.021  -0.156   0.002  -0.190  -0.041  -0.019   0.140  -0.002   0.174  -0.046   0.011   0.081  -0.001   0.014  -0.005
  0.000  -0.084  -0.001   0.084  -0.024  -0.000   0.068   0.001  -0.068   0.021   0.000  -0.000  -0.001   0.121  -0.002   0.000
 -0.055  -0.002   0.156  -0.021  -0.190   0.040   0.001  -0.139   0.019   0.174   0.046  -0.011   0.014  -0.002   0.081  -0.001
 -0.006  -0.001   0.006  -0.000   0.008   0.003   0.001  -0.008   0.000  -0.011   0.004  -0.001  -0.005   0.000  -0.001   0.000
 -0.000   0.007  -0.000  -0.007   0.001   0.000  -0.005  -0.000   0.005  -0.001  -0.000   0.000   0.000  -0.008   0.000  -0.000
  0.005   0.000  -0.006   0.001   0.008  -0.003  -0.000   0.008  -0.001  -0.011  -0.004   0.001  -0.001   0.000  -0.005   0.000


------------------------ aborting loop because EDIFF is reached ----------------------------------------


 


 total charge     
 
# of ion       s       p       d       tot
------------------------------------------
    1        0.254   0.159   9.311   9.725
    2        0.253   0.158   9.313   9.723
    3        0.241   0.151   9.320   9.712
    4        0.241   0.151   9.320   9.712
    5        0.238   0.147   9.323   9.708
    6        0.241   0.151   9.320   9.712
    7        0.238   0.147   9.323   9.708
    8        0.241   0.151   9.320   9.712
    9        1.834   1.400   0.138   3.372
   10        1.834   1.401   0.138   3.372
   11        1.835   1.397   0.139   3.371
   12        1.833   1.400   0.135   3.368
   13        1.835   1.397   0.139   3.370
   14        1.833   1.400   0.135   3.368
   15        1.834   1.400   0.138   3.372
   16        1.834   1.400   0.138   3.372
   17        1.514   2.742   0.017   4.273
   18        1.518   2.742   0.012   4.272
   19        1.518   2.742   0.011   4.271
   20        1.518   2.742   0.011   4.271
   21        1.518   2.742   0.012   4.273
   22        1.518   2.742   0.013   4.273
   23        1.518   2.742   0.012   4.272
   24        1.514   2.742   0.017   4.273
   25        1.518   2.742   0.011   4.271
   26        1.518   2.742   0.011   4.271
   27        1.518   2.742   0.012   4.272
   28        1.514   2.742   0.017   4.274
   29        1.514   2.742   0.017   4.273
   30        1.518   2.742   0.012   4.272
   31        1.518   2.742   0.013   4.273
   32        1.518   2.743   0.012   4.273
   33        1.517   2.745   0.013   4.275
   34        1.516   2.743   0.015   4.274
   35        1.514   2.743   0.015   4.272
   36        1.514   2.743   0.015   4.272
   37        1.513   2.747   0.016   4.276
   38        1.513   2.748   0.016   4.276
   39        1.516   2.743   0.015   4.273
   40        1.517   2.745   0.013   4.275
   41        1.514   2.743   0.015   4.272
   42        1.514   2.743   0.015   4.272
   43        1.515   2.744   0.015   4.274
   44        1.517   2.746   0.012   4.275
   45        1.517   2.746   0.012   4.275
   46        1.515   2.744   0.015   4.274
   47        1.513   2.747   0.016   4.276
   48        1.513   2.747   0.016   4.276
--------------------------------------------------
tot         65.134 100.204  76.089 241.427
 


--------------------------------------------------------------------------------------------------------



  FREE ENERGIE OF THE ION-ELECTRON SYSTEM (eV)
  ---------------------------------------------------
  free  energy   TOTEN  =      -119.96440231 eV

  energy  without entropy=     -119.96440231  energy(sigma->0) =     -119.96440231
 


--------------------------------------------------------------------------------------------------------




--------------------------------------------------------------------------------------------------------


 writing wavefunctions
     LOOP+:  cpu time  118.7747: real time  118.8858
    4ORBIT:  cpu time    0.0000: real time    0.0000
 


 total charge     
 
# of ion       s       p       d       tot
------------------------------------------
    1        0.254   0.159   9.311   9.725
    2        0.253   0.158   9.313   9.723
    3        0.241   0.151   9.320   9.712
    4        0.241   0.151   9.320   9.712
    5        0.238   0.147   9.323   9.708
    6        0.241   0.151   9.320   9.712
    7        0.238   0.147   9.323   9.708
    8        0.241   0.151   9.320   9.712
    9        1.834   1.400   0.138   3.372
   10        1.834   1.401   0.138   3.372
   11        1.835   1.397   0.139   3.371
   12        1.833   1.400   0.135   3.368
   13        1.835   1.397   0.139   3.370
   14        1.833   1.400   0.135   3.368
   15        1.834   1.400   0.138   3.372
   16        1.834   1.400   0.138   3.372
   17        1.514   2.742   0.017   4.273
   18        1.518   2.742   0.012   4.272
   19        1.518   2.742   0.011   4.271
   20        1.518   2.742   0.011   4.271
   21        1.518   2.742   0.012   4.273
   22        1.518   2.742   0.013   4.273
   23        1.518   2.742   0.012   4.272
   24        1.514   2.742   0.017   4.273
   25        1.518   2.742   0.011   4.271
   26        1.518   2.742   0.011   4.271
   27        1.518   2.742   0.012   4.272
   28        1.514   2.742   0.017   4.274
   29        1.514   2.742   0.017   4.273
   30        1.518   2.742   0.012   4.272
   31        1.518   2.742   0.013   4.273
   32        1.518   2.743   0.012   4.273
   33        1.517   2.745   0.013   4.275
   34        1.516   2.743   0.015   4.274
   35        1.514   2.743   0.015   4.272
   36        1.514   2.743   0.015   4.272
   37        1.513   2.747   0.016   4.276
   38        1.513   2.748   0.016   4.276
   39        1.516   2.743   0.015   4.273
   40        1.517   2.745   0.013   4.275
   41        1.514   2.743   0.015   4.272
   42        1.514   2.743   0.015   4.272
   43        1.515   2.744   0.015   4.274
   44        1.517   2.746   0.012   4.275
   45        1.517   2.746   0.012   4.275
   46        1.515   2.744   0.015   4.274
   47        1.513   2.747   0.016   4.276
   48        1.513   2.747   0.016   4.276
--------------------------------------------------
tot         65.134 100.204  76.089 241.427
 
 BZINTS: Fermi energy:    2.053592;  352.000000 electrons
         Band energy:-0.758810E+03;  BLOECHL correction:   -0.000000

 total amount of memory used by VASP MPI-rank0  2782079. kBytes
=======================================================================

   base      :      30000. kBytes
   nonl-proj :     303764. kBytes
   fftplans  :      34720. kBytes
   grid      :      70000. kBytes
   one-center:        746. kBytes
   wavefun   :    2342849. kBytes
 
  
  
 General timing and accounting informations for this job:
 ========================================================
  
                  Total CPU time used (sec):      158.983
                            User time (sec):      154.390
                          System time (sec):        4.593
                         Elapsed time (sec):      159.860
  
                   Maximum memory used (kb):     4341480.
                   Average memory used (kb):           0.
  
                          Minor page faults:       418155
                          Major page faults:            0
                 Voluntary context switches:         2502
