 vasp.6.1.0 28Jan20 (build Jan 13 2021 21:44:47) complex                        
  
 executed on             LinuxIFC date 2021.09.12  19:23:37
 running on    9 total cores
 distrk:  each k-point on    1 cores,    9 groups
 distr:  one band on NCORE=   1 cores,    1 groups


--------------------------------------------------------------------------------------------------------


 INCAR:
 POTCAR:    PAW_PBE Ag 02Apr2005                  
 POTCAR:    PAW_PBE Bi 08Apr2002                  
 POTCAR:    PAW_PBE I 08Apr2002                   
 -----------------------------------------------------------------------------
|                                                                             |
|           W    W    AA    RRRRR   N    N  II  N    N   GGGG   !!!           |
|           W    W   A  A   R    R  NN   N  II  NN   N  G    G  !!!           |
|           W    W  A    A  R    R  N N  N  II  N N  N  G       !!!           |
|           W WW W  AAAAAA  RRRRR   N  N N  II  N  N N  G  GGG   !            |
|           WW  WW  A    A  R   R   N   NN  II  N   NN  G    G                |
|           W    W  A    A  R    R  N    N  II  N    N   GGGG   !!!           |
|                                                                             |
|     For optimal performance we recommend to set                             |
|       NCORE = 4 - approx SQRT(number of cores).                             |
|     NCORE specifies how many cores store one orbital (NPAR=cpu/NCORE).      |
|     This setting can greatly improve the performance of VASP for DFT.       |
|     The default, NCORE=1 might be grossly inefficient on modern             |
|     multi-core architectures or massively parallel machines. Do your        |
|     own testing!!!!                                                         |
|     Unfortunately you need to use the default for GW and RPA                |
|     calculations (for HF NCORE is supported but not extensively tested      |
|     yet).                                                                   |
|                                                                             |
 -----------------------------------------------------------------------------

 POTCAR:    PAW_PBE Ag 02Apr2005                  
   VRHFIN =Ag : s1 d10                                                                              
   LEXCH  = PE                                                                                      
   EATOM  =  1037.2675 eV,   76.2370 Ry                                                             
                                                                                                    
   TITEL  = PAW_PBE Ag 02Apr2005                                                                    
   LULTRA =        F    use ultrasoft PP ?                                                          
   IUNSCR =        1    unscreen: 0-lin 1-nonlin 2-no                                               
   RPACOR =    2.000    partial core radius                                                         
   POMASS =  107.868; ZVAL   =   11.000    mass and valenz                                          
   RCORE  =    2.500    outmost cutoff radius                                                       
   RWIGS  =    2.840; RWIGS  =    1.503    wigner-seitz radius (au A)                               
   ENMAX  =  249.844; ENMIN  =  187.383 eV                                                          
   ICORE  =        3    local potential                                                             
   LCOR   =        T    correct aug charges                                                         
   LPAW   =        T    paw PP                                                                      
   EAUG   =  412.496                                                                                
   DEXC   =    0.000                                                                                
   RMAX   =    2.560    core radius for proj-oper                                                   
   RAUG   =    1.300    factor for augmentation sphere                                              
   RDEP   =    2.576    radius for radial grids                                                     
   RDEPT  =    2.072    core radius for aug-charge                                                  
                                                                                                    
   Atomic configuration                                                                             
   12 entries                                                                                       
     n  l   j            E        occ.                                                              
     1  0  0.50    -25324.9161   2.0000                                                             
     2  0  0.50     -3728.5341   2.0000                                                             
     2  1  1.50     -3344.0404   6.0000                                                             
     3  0  0.50      -683.5581   2.0000                                                             
     3  1  1.50      -557.3225   6.0000                                                             
     3  2  2.50      -358.3853  10.0000                                                             
     4  0  0.50       -95.0341   2.0000                                                             
     4  1  1.50       -58.5511   6.0000                                                             
     4  2  2.50        -7.4440  10.0000                                                             
     5  0  0.50        -4.4045   1.0000                                                             
     5  1  0.50        -1.3606   0.0000                                                             
     4  3  2.50        -1.3606   0.0000                                                             
   Description                                                                                      
     l       E           TYP  RCUT    TYP  RCUT                                                     
     2     -7.4439781     23  2.400                                                                 
     2     -8.8045607     23  2.400                                                                 
     0     -4.4044681     23  2.400                                                                 
     0      1.9520038     23  2.400                                                                 
     1     -1.3605826     23  2.500                                                                 
     1     27.2116520     23  2.500                                                                 
     3     -4.0817478     23  2.400                                                                 
  local pseudopotential read in
  partial core-charges read in
  partial kinetic energy density read in
  atomic valenz-charges read in
  non local Contribution for L=           2  read in
    real space projection operators read in
  non local Contribution for L=           2  read in
    real space projection operators read in
  non local Contribution for L=           0  read in
    real space projection operators read in
  non local Contribution for L=           0  read in
    real space projection operators read in
  non local Contribution for L=           1  read in
    real space projection operators read in
  non local Contribution for L=           1  read in
    real space projection operators read in
    PAW grid and wavefunctions read in
 
   number of l-projection  operators is LMAX  =           6
   number of lm-projection operators is LMMAX =          18
 
 POTCAR:    PAW_PBE Bi 08Apr2002                  
   VRHFIN =Bi:                                                                                      
   LEXCH  = PE                                                                                      
   EATOM  =   150.8133 eV,   11.0845 Ry                                                             
                                                                                                    
   TITEL  = PAW_PBE Bi 08Apr2002                                                                    
   LULTRA =        F    use ultrasoft PP ?                                                          
   IUNSCR =        1    unscreen: 0-lin 1-nonlin 2-no                                               
   RPACOR =    2.200    partial core radius                                                         
   POMASS =  208.980; ZVAL   =    5.000    mass and valenz                                          
   RCORE  =    3.000    outmost cutoff radius                                                       
   RWIGS  =    3.090; RWIGS  =    1.635    wigner-seitz radius (au A)                               
   ENMAX  =  105.037; ENMIN  =   78.777 eV                                                          
   ICORE  =        3    local potential                                                             
   LCOR   =        T    correct aug charges                                                         
   LPAW   =        T    paw PP                                                                      
   EAUG   =  265.427                                                                                
   DEXC   =    0.000                                                                                
   RMAX   =    3.067    core radius for proj-oper                                                   
   RAUG   =    1.300    factor for augmentation sphere                                              
   RDEP   =    3.012    radius for radial grids                                                     
   RDEPT  =    2.604    core radius for aug-charge                                                  
                                                                                                    
   Atomic configuration                                                                             
   17 entries                                                                                       
     n  l   j            E        occ.                                                              
     1  0  0.50    -90639.6582   2.0000                                                             
     2  0  0.50    -16282.4667   2.0000                                                             
     2  1  1.50    -13922.8287   6.0000                                                             
     3  0  0.50     -3930.4763   2.0000                                                             
     3  1  1.50     -3256.7013   6.0000                                                             
     3  2  2.50     -2581.6169  10.0000                                                             
     4  0  0.50      -902.2614   2.0000                                                             
     4  1  1.50      -681.5915   6.0000                                                             
     4  2  2.50      -429.8249  10.0000                                                             
     4  3  3.50      -152.6004  14.0000                                                             
     5  0  0.50      -157.7156   2.0000                                                             
     5  1  1.50       -95.8054   6.0000                                                             
     5  2  2.50       -27.0806  10.0000                                                             
     6  0  0.50       -14.4732   2.0000                                                             
     6  1  1.50        -4.5702   3.0000                                                             
     6  2  2.50        -2.7212   0.0000                                                             
     5  3  2.50        -2.7212   0.0000                                                             
   Description                                                                                      
     l       E           TYP  RCUT    TYP  RCUT                                                     
     0    -14.4732299     23  3.000                                                                 
     0    -12.2452434     23  3.000                                                                 
     1     -4.5701666     23  3.000                                                                 
     1    -13.6058260     23  3.000                                                                 
     2     -2.7211652     23  3.000                                                                 
     3     -1.3605826      7  3.000                                                                 
  local pseudopotential read in
  partial core-charges read in
  partial kinetic energy density read in
  kinetic energy density of atom read in
  atomic valenz-charges read in
  non local Contribution for L=           0  read in
    real space projection operators read in
  non local Contribution for L=           0  read in
    real space projection operators read in
  non local Contribution for L=           1  read in
    real space projection operators read in
  non local Contribution for L=           1  read in
    real space projection operators read in
  non local Contribution for L=           2  read in
    real space projection operators read in
    PAW grid and wavefunctions read in
 
   number of l-projection  operators is LMAX  =           5
   number of lm-projection operators is LMMAX =          13
 
 POTCAR:    PAW_PBE I 08Apr2002                   
   VRHFIN =I : s2p5                                                                                 
   LEXCH  = PE                                                                                      
   EATOM  =   315.8678 eV,   23.2156 Ry                                                             
                                                                                                    
   TITEL  = PAW_PBE I 08Apr2002                                                                     
   LULTRA =        F    use ultrasoft PP ?                                                          
   IUNSCR =        1    unscreen: 0-lin 1-nonlin 2-no                                               
   RPACOR =    2.200    partial core radius                                                         
   POMASS =  126.904; ZVAL   =    7.000    mass and valenz                                          
   RCORE  =    2.300    outmost cutoff radius                                                       
   RWIGS  =    2.810; RWIGS  =    1.487    wigner-seitz radius (au A)                               
   ENMAX  =  175.647; ENMIN  =  131.735 eV                                                          
   ICORE  =        3    local potential                                                             
   LCOR   =        T    correct aug charges                                                         
   LPAW   =        T    paw PP                                                                      
   EAUG   =  370.139                                                                                
   DEXC   =    0.000                                                                                
   RMAX   =    2.359    core radius for proj-oper                                                   
   RAUG   =    1.300    factor for augmentation sphere                                              
   RDEP   =    2.392    radius for radial grids                                                     
   RDEPT  =    2.170    core radius for aug-charge                                                  
                                                                                                    
   Atomic configuration                                                                             
   13 entries                                                                                       
     n  l   j            E        occ.                                                              
     1  0  0.50    -32976.3739   2.0000                                                             
     2  0  0.50     -5094.5933   2.0000                                                             
     2  1  1.50     -4572.0131   6.0000                                                             
     3  0  0.50     -1028.2813   2.0000                                                             
     3  1  1.50      -859.0250   6.0000                                                             
     3  2  2.50      -605.7620  10.0000                                                             
     4  0  0.50      -180.5540   2.0000                                                             
     4  1  1.50      -127.5306   6.0000                                                             
     4  2  2.50       -50.2720  10.0000                                                             
     5  0  0.50       -17.4058   2.0000                                                             
     5  1  0.50        -7.0851   5.0000                                                             
     5  2  1.50        -7.0750   0.0000                                                             
     4  3  2.50        -7.0750   0.0000                                                             
   Description                                                                                      
     l       E           TYP  RCUT    TYP  RCUT                                                     
     0    -17.4058016     23  2.300                                                                 
     0    -18.7663842     23  2.300                                                                 
     1     -7.0850686     23  2.300                                                                 
     1     -4.2150896     23  2.300                                                                 
     2     -7.0750295     23  2.300                                                                 
     3     -1.3605826     23  2.300                                                                 
  local pseudopotential read in
  partial core-charges read in
  partial kinetic energy density read in
  atomic valenz-charges read in
  non local Contribution for L=           0  read in
    real space projection operators read in
  non local Contribution for L=           0  read in
    real space projection operators read in
  non local Contribution for L=           1  read in
    real space projection operators read in
  non local Contribution for L=           1  read in
    real space projection operators read in
  non local Contribution for L=           2  read in
    real space projection operators read in
    PAW grid and wavefunctions read in
 
   number of l-projection  operators is LMAX  =           5
   number of lm-projection operators is LMMAX =          13
 
 -----------------------------------------------------------------------------
|                                                                             |
|               ----> ADVICE to this user running VASP <----                  |
|                                                                             |
|     You have a (more or less) 'large supercell' and for larger cells it     |
|     might be more efficient to use real-space projection operators.         |
|     Therefore, try LREAL= Auto in the INCAR file.                           |
|     Mind: For very accurate calculation, you might also keep the            |
|     reciprocal projection scheme (i.e. LREAL=.FALSE.).                      |
|                                                                             |
 -----------------------------------------------------------------------------

  PAW_PBE Ag 02Apr2005                  :
 energy of atom  1       EATOM=-1037.2675
 kinetic energy error for atom=    0.0686 (will be added to EATOM!!)
  PAW_PBE Bi 08Apr2002                  :
 energy of atom  2       EATOM= -150.8133
 kinetic energy error for atom=    0.0004 (will be added to EATOM!!)
  PAW_PBE I 08Apr2002                   :
 energy of atom  3       EATOM= -315.8678
 kinetic energy error for atom=    0.0044 (will be added to EATOM!!)
 
 
 POSCAR: Generation Seed Number
  positions in direct lattice
  velocities in cartesian coordinates
 exchange correlation table for  LEXCH =        8
   RHO(1)=    0.500       N(1)  =     2000
   RHO(2)=  100.500       N(2)  =     4000
 


--------------------------------------------------------------------------------------------------------


 ion  position               nearest neighbor table
   1  0.724  0.776  1.000-  48 2.95  47 2.95  21 2.97  31 2.97
   2  0.011  0.245  0.275-  41 2.94  26 2.98  33 3.06  35 3.14  45 3.18  25 3.59
   3  0.025  0.475  0.500-  35 2.95  36 2.96  26 2.97  20 2.97
   4  0.253  0.002  0.249-  41 3.02  37 3.03  43 3.06  33 3.09  17 3.26  18 3.28
   5  0.741  0.006  0.775-  38 2.94  21 2.98  46 3.07  34 3.13  48 3.17  22 3.58
   6  0.494  0.760  0.225-  37 2.94  31 2.98  43 3.07  39 3.14  47 3.16  32 3.58
   7  0.498  0.247  0.751-  42 3.02  38 3.03  46 3.05  40 3.09  29 3.25  30 3.29
   8  0.255  0.488  0.725-  42 2.94  20 2.98  40 3.06  36 3.12  44 3.21
   9  0.999  0.002  0.004-  33 3.03  21 3.06  25 3.13  27 3.14  34 3.20  17 3.20
  10  0.250  0.250  1.000-  42 3.11  17 3.11  41 3.11  29 3.11  25 3.14  19 3.14
  11  0.498  0.501  0.996-  40 3.03  31 3.06  19 3.13  23 3.14  39 3.20  29 3.20
  12  0.998  0.748  0.750-  48 3.07  36 3.07  27 3.14  28 3.14  44 3.18  34 3.18
  13  0.500  0.000  0.500-  38 3.11  37 3.11  30 3.11  18 3.12  22 3.14  32 3.14
  14  0.752  0.502  0.249-  47 3.07  35 3.07  23 3.14  24 3.14  45 3.18  39 3.19
  15  0.751  0.249  0.503-  46 3.04  26 3.06  22 3.13  24 3.14  45 3.19  30 3.20
  16  0.251  0.750  0.497-  43 3.04  20 3.06  32 3.13  28 3.14  44 3.19  18 3.20
  17  0.250  0.005  0.993-  10 3.11   9 3.20   4 3.26
  18  0.256  0.001  0.507-  13 3.12  16 3.20   4 3.28
  19  0.253  0.496  0.007-  11 3.13  10 3.14
  20  0.256  0.509  0.492-   3 2.97   8 2.98  16 3.06
  21  0.759  0.006  0.008-   1 2.97   5 2.98   9 3.06
  22  0.747  0.004  0.493-  15 3.13  13 3.14   5 3.58
  23  0.745  0.489  0.003-  14 3.14  11 3.14
  24  0.740  0.495  0.496-  14 3.14  15 3.14
  25  0.004  0.247  0.993-   9 3.13  10 3.14   2 3.59
  26  0.991  0.244  0.508-   3 2.97   2 2.98  15 3.06
  27  0.011  0.755  0.996-  12 3.14   9 3.14
  28  0.005  0.761  0.504-  12 3.14  16 3.14
  29  0.495  0.250  0.007-  10 3.11  11 3.20   7 3.25
  30  0.500  0.245  0.493-  13 3.11  15 3.20   7 3.29
  31  0.494  0.742  0.991-   1 2.97   6 2.98  11 3.06
  32  0.497  0.754  0.507-  16 3.13  13 3.14   6 3.58
  33  0.010  0.006  0.242-   9 3.03   2 3.06   4 3.09
  34  0.986  0.998  0.753-   5 3.13  12 3.18   9 3.20
  35  0.992  0.490  0.270-   3 2.95  14 3.07   2 3.14
  36  0.010  0.508  0.729-   3 2.96  12 3.07   8 3.12
  37  0.491  0.989  0.256-   6 2.94   4 3.03  13 3.11
  38  0.512  0.009  0.744-   5 2.94   7 3.03  13 3.11
  39  0.502  0.514  0.247-   6 3.14  14 3.19  11 3.20
  40  0.493  0.490  0.758-  11 3.03   8 3.06   7 3.09
  41  0.240  0.239  0.244-   2 2.94   4 3.02  10 3.11
  42  0.261  0.259  0.756-   8 2.94   7 3.02  10 3.11
  43  0.255  0.762  0.258-  16 3.04   4 3.06   6 3.07
  44  0.248  0.739  0.747-  12 3.18  16 3.19   8 3.21
  45  0.762  0.252  0.253-  14 3.18   2 3.18  15 3.19
  46  0.738  0.245  0.741-  15 3.04   7 3.05   5 3.07
  47  0.742  0.742  0.228-   1 2.95  14 3.07   6 3.16
  48  0.758  0.758  0.771-   1 2.95  12 3.07   5 3.17
 
 -----------------------------------------------------------------------------
|                                                                             |
|           W    W    AA    RRRRR   N    N  II  N    N   GGGG   !!!           |
|           W    W   A  A   R    R  NN   N  II  NN   N  G    G  !!!           |
|           W    W  A    A  R    R  N N  N  II  N N  N  G       !!!           |
|           W WW W  AAAAAA  RRRRR   N  N N  II  N  N N  G  GGG   !            |
|           WW  WW  A    A  R   R   N   NN  II  N   NN  G    G                |
|           W    W  A    A  R    R  N    N  II  N    N   GGGG   !!!           |
|                                                                             |
|     The determination of the symmetry of your systems shows a strong        |
|     dependence on the tolerance parameter SYMPREC. This is often the        |
|     result of "noise" in the structural parameters (lattice vectors         |
|     and/or ionic positions). Set NWRITE=3 for more details.                 |
|                                                                             |
 -----------------------------------------------------------------------------

  LATTYP: Found a base centered monoclinic cell.
 ALAT       =    59.7039263520
 B/A-ratio  =     0.3014512044
 C/A-ratio  =     0.6396031492
 COS(beta)  =    -0.9949397266
  
  Lattice vectors:
  
 A1 = (  12.7305701402,  12.7284406646,  25.4566176391)
 A2 = (  25.4567310596,  12.7287745395,  12.7300167108)
 A3 = ( -25.4579219963, -12.7296162701, -25.4574988245)


Analysis of symmetry for initial positions (statically):
=====================================================================
 Subroutine PRICEL returns:
 Original cell was already a primitive cell.
 

 Routine SETGRP: Setting up the symmetry group for a 
 base centered monoclinic supercell.


 Subroutine GETGRP returns: Found  1 space group operations
 (whereof  1 operations were pure point group operations)
 out of a pool of  4 trial point group operations.


The static configuration has the point symmetry C_1 .


Analysis of symmetry for dynamics (positions and initial velocities):
=====================================================================
 Subroutine PRICEL returns:
 Original cell was already a primitive cell.
 

 Routine SETGRP: Setting up the symmetry group for a 
 base centered monoclinic supercell.


 Subroutine GETGRP returns: Found  1 space group operations
 (whereof  1 operations were pure point group operations)
 out of a pool of  4 trial point group operations.


The dynamic configuration has the point symmetry C_1 .


 Subroutine INISYM returns: Found  1 space group operations
 (whereof  1 operations are pure point group operations),
 and found     1 'primitive' translations


----------------------------------------------------------------------------------------

                                     Primitive cell                                     

  volume of cell :    2061.3806

  direct lattice vectors                    reciprocal lattice vectors
    12.727351856  0.001175606  0.000881185     0.078570941 -0.000005164 -0.000007352
     0.000836411 12.725581598  0.000772226    -0.000007258  0.078581871 -0.000005196
     0.001190937  0.000841731 12.727482114    -0.000005439 -0.000004768  0.078570137

  length of vectors
    12.727351941 12.725581649 12.727482197     0.078570942  0.078581871  0.078570137

  position of ions in fractional coordinates (direct lattice)
     0.724139057  0.775848957  0.999590639
     0.011219460  0.244799291  0.274762616
     0.025028658  0.475077490  0.499678713
     0.253155476  0.002007141  0.249081587
     0.740824351  0.006144361  0.774655977
     0.494269444  0.759956996  0.225020918
     0.498360299  0.247082859  0.751431061
     0.255074480  0.487833184  0.724753306
     0.998696533  0.001697547  0.003827904
     0.250141366  0.249793628  0.999873904
     0.498177191  0.501479939  0.996006421
     0.998027336  0.748174666  0.750083734
     0.500366922  0.000009027  0.499914792
     0.751934454  0.502240202  0.249478851
     0.750545516  0.248918903  0.503150239
     0.251359154  0.749723893  0.496680980
     0.250030727  0.005195303  0.993212806
     0.255672867  0.000758512  0.506970030
     0.252875191  0.496329365  0.006526284
     0.255686710  0.509372356  0.491702084
     0.758586464  0.006120044  0.008384154
     0.746741038  0.003545675  0.493187417
     0.744682537  0.489198220  0.003464752
     0.739500876  0.495448443  0.495678749
     0.003712413  0.247092672  0.993103491
     0.990861392  0.244499657  0.508137429
     0.010987420  0.755239397  0.996106754
     0.004810724  0.760684978  0.503931792
     0.494778479  0.250032924  0.006625176
     0.499607375  0.244661603  0.492734898
     0.493808898  0.741572243  0.991224047
     0.496680815  0.753550117  0.506583406
     0.010168930  0.006357656  0.241577125
     0.985856535  0.998123383  0.752642906
     0.992231004  0.490453614  0.270381369
     0.010418238  0.507781184  0.729252989
     0.490937364  0.988932766  0.255657903
     0.511793294  0.009299724  0.744137641
     0.501966315  0.514008066  0.247002179
     0.493154953  0.489694655  0.758116139
     0.240213264  0.238935351  0.244099212
     0.261191488  0.258962446  0.755686096
     0.255129574  0.762113138  0.258258646
     0.247817028  0.738791410  0.746806683
     0.762069136  0.252324066  0.252813182
     0.738163371  0.245410627  0.741453280
     0.741826446  0.742376958  0.228342373
     0.757855963  0.757889218  0.771103156

  ion indices of the primitive-cell ions
   primitive index   ion index
                 1           1
                 2           2
                 3           3
                 4           4
                 5           5
                 6           6
                 7           7
                 8           8
                 9           9
                10          10
                11          11
                12          12
                13          13
                14          14
                15          15
                16          16
                17          17
                18          18
                19          19
                20          20
                21          21
                22          22
                23          23
                24          24
                25          25
                26          26
                27          27
                28          28
                29          29
                30          30
                31          31
                32          32
                33          33
                34          34
                35          35
                36          36
                37          37
                38          38
                39          39
                40          40
                41          41
                42          42
                43          43
                44          44
                45          45
                46          46
                47          47
                48          48

----------------------------------------------------------------------------------------

 
 
 KPOINTS: agbii                                   

Automatic generation of k-mesh.
Space group operators:
 irot       det(A)        alpha          n_x          n_y          n_z        tau_x        tau_y        tau_z
    1     1.000000     0.000000     1.000000     0.000000     0.000000     0.000000     0.000000     0.000000
 TETIRR: Found    192 inequivalent tetrahedra from      384
 
 Subroutine IBZKPT returns following result:
 ===========================================
 
 Found     36 irreducible k-points:
 
 Following reciprocal coordinates:
            Coordinates               Weight
  0.000000  0.000000  0.000000      1.000000
  0.250000  0.000000  0.000000      2.000000
  0.000000  0.000000 -0.250000      2.000000
  0.500000  0.000000  0.000000      1.000000
 -0.000000 -0.000000  0.500000      1.000000
  0.000000  0.250000 -0.000000      2.000000
  0.250000  0.250000 -0.000000      2.000000
 -0.000000 -0.250000 -0.250000      2.000000
  0.500000  0.250000 -0.000000      2.000000
 -0.000000 -0.250000  0.500000      2.000000
 -0.250000  0.250000  0.000000      2.000000
 -0.000000 -0.250000  0.250000      2.000000
  0.000000  0.500000  0.000000      1.000000
  0.250000  0.500000  0.000000      2.000000
  0.000000  0.500000 -0.250000      2.000000
  0.500000  0.500000  0.000000      1.000000
  0.000000  0.500000  0.500000      1.000000
  0.250000 -0.000000  0.250000      2.000000
  0.500000 -0.000000  0.250000      2.000000
 -0.250000 -0.000000  0.500000      2.000000
 -0.250000 -0.000000  0.250000      2.000000
  0.250000  0.250000  0.250000      2.000000
  0.500000  0.250000  0.250000      2.000000
 -0.250000 -0.250000  0.500000      2.000000
 -0.250000  0.250000  0.250000      2.000000
 -0.250000 -0.250000  0.250000      2.000000
  0.250000  0.500000  0.250000      2.000000
  0.500000  0.500000  0.250000      2.000000
 -0.250000  0.500000  0.500000      2.000000
 -0.250000  0.500000  0.250000      2.000000
  0.250000 -0.250000  0.250000      2.000000
  0.500000 -0.250000  0.250000      2.000000
 -0.250000  0.250000  0.500000      2.000000
  0.500000 -0.000000  0.500000      1.000000
  0.500000  0.250000  0.500000      2.000000
  0.500000  0.500000  0.500000      1.000000
 
 Following cartesian coordinates:
            Coordinates               Weight
  0.000000  0.000000  0.000000      1.000000
  0.019643 -0.000001 -0.000002      2.000000
  0.000001  0.000001 -0.019643      2.000000
  0.039285 -0.000003 -0.000004      1.000000
 -0.000003 -0.000002  0.039285      1.000000
 -0.000002  0.019645 -0.000001      2.000000
  0.019641  0.019644 -0.000003      2.000000
  0.000003 -0.019644 -0.019641      2.000000
  0.039284  0.019643 -0.000005      2.000000
 -0.000001 -0.019648  0.039286      2.000000
 -0.019645  0.019647  0.000001      2.000000
  0.000000 -0.019647  0.019644      2.000000
 -0.000004  0.039291 -0.000003      1.000000
  0.019639  0.039290 -0.000004      2.000000
 -0.000002  0.039292 -0.019645      2.000000
  0.039282  0.039288 -0.000006      1.000000
 -0.000006  0.039289  0.039282      1.000000
  0.019641 -0.000002  0.019641      2.000000
  0.039284 -0.000004  0.019639      2.000000
 -0.019645 -0.000001  0.039287      2.000000
 -0.019644  0.000000  0.019644      2.000000
  0.019640  0.019643  0.019639      2.000000
  0.039282  0.019642  0.019638      2.000000
 -0.019644 -0.019647  0.039288      2.000000
 -0.019646  0.019646  0.019643      2.000000
 -0.019642 -0.019645  0.019646      2.000000
  0.019638  0.039288  0.019638      2.000000
  0.039280  0.039287  0.019636      2.000000
 -0.019649  0.039290  0.039284      2.000000
 -0.019648  0.039291  0.019642      2.000000
  0.019643 -0.019648  0.019642      2.000000
  0.039286 -0.019649  0.019640      2.000000
 -0.019647  0.019644  0.039286      2.000000
  0.039283 -0.000005  0.039281      1.000000
  0.039281  0.019641  0.039280      2.000000
  0.039279  0.039286  0.039279      1.000000
 


--------------------------------------------------------------------------------------------------------




 Dimension of arrays:
   k-points           NKPTS =     36   k-points in BZ     NKDIM =     36   number of bands    NBANDS=    211
   number of dos      NEDOS =   3000   number of ions     NIONS =     48
   non local maximal  LDIM  =      6   non local SUM 2l+1 LMDIM =     18
   total plane-waves  NPLWV = 125000
   max r-space proj   IRMAX =      1   max aug-charges    IRDMAX=   5975
   dimension x,y,z NGX =    50 NGY =   50 NGZ =   50
   dimension x,y,z NGXF=   100 NGYF=  100 NGZF=  100
   support grid    NGXF=   100 NGYF=  100 NGZF=  100
   ions per type =               8   8  32
   NGX,Y,Z   is equivalent  to a cutoff of   6.53,  6.53,  6.53 a.u.
   NGXF,Y,Z  is equivalent  to a cutoff of  13.06, 13.06, 13.06 a.u.

 SYSTEM =  unknown system                          
 POSCAR =  Generation Seed Number                  

 Startparameter for this run:
   NWRITE =      2    write-flag & timer
   PREC   = normal    normal or accurate (medium, high low for compatibility)
   ISTART =      1    job   : 0-new  1-cont  2-samecut
   ICHARG =      1    charge: 1-file 2-atom 10-const
   ISPIN  =      1    spin polarized calculation?
   LNONCOLLINEAR =      F non collinear calculations
   LSORBIT =      F    spin-orbit coupling
   INIWAV =      1    electr: 0-lowe 1-rand  2-diag
   LASPH  =      F    aspherical Exc in radial PAW
   METAGGA=      F    non-selfconsistent MetaGGA calc.

 Electronic Relaxation 1
   ENCUT  =  250.0 eV  18.37 Ry    4.29 a.u.  16.41 16.41 16.41*2*pi/ulx,y,z
   ENINI  =  250.0     initial cutoff
   ENAUG  =  412.5 eV  augmentation charge cutoff
   NELM   =     60;   NELMIN=  2; NELMDL=  0     # of ELM steps 
   EDIFF  = 0.1E-05   stopping-criterion for ELM
   LREAL  =      F    real-space projection
   NLSPLINE    = F    spline interpolate recip. space projectors
   LCOMPAT=      F    compatible to vasp.4.4
   GGA_COMPAT  = T    GGA compatible to vasp.4.4-vasp.4.6
   LMAXPAW     = -100 max onsite density
   LMAXMIX     =    4 max onsite mixed and CHGCAR
   VOSKOWN=      0    Vosko Wilk Nusair interpolation
   ROPT   =    0.00000   0.00000   0.00000
 Ionic relaxation
   EDIFFG = -.1E-01   stopping-criterion for IOM
   NSW    =      0    number of steps for IOM
   NBLOCK =      1;   KBLOCK =      1    inner block; outer block 
   IBRION =     -1    ionic relax: 0-MD 1-quasi-New 2-CG
   NFREE  =      0    steps in history (QN), initial steepest desc. (CG)
   ISIF   =     -1    stress and relaxation
   IWAVPR =     10    prediction:  0-non 1-charg 2-wave 3-comb
   ISYM   =      2    0-nonsym 1-usesym 2-fastsym
   LCORR  =      T    Harris-Foulkes like correction to forces

   POTIM  = 0.5000    time-step for ionic-motion
   TEIN   =    0.0    initial temperature
   TEBEG  =    0.0;   TEEND  =   0.0 temperature during run
   SMASS  =  -3.00    Nose mass-parameter (am)
   estimated Nose-frequenzy (Omega)   =  0.10E-29 period in steps = 0.13E+47 mass=  -0.370E-26a.u.
   SCALEE = 1.0000    scale energy and forces
   NPACO  =    256;   APACO  = 16.0  distance and # of slots for P.C.
   PSTRESS=    0.0 pullay stress

  Mass of Ions in am
   POMASS = 107.87208.98126.90
  Ionic Valenz
   ZVAL   =  11.00  5.00  7.00
  Atomic Wigner-Seitz radii
   RWIGS  =  -1.00 -1.00 -1.00
  virtual crystal weights 
   VCA    =   1.00  1.00  1.00
   NELECT =     352.0000    total number of electrons
   NUPDOWN=      -1.0000    fix difference up-down

 DOS related values:
   EMIN   =  10.00;   EMAX   =-10.00  energy-range for DOS
   EFERMI =   0.00
   ISMEAR =    -5;   SIGMA  =   0.20  broadening in eV -4-tet -1-fermi 0-gaus

 Electronic relaxation 2 (details)
   IALGO  =     38    algorithm
   LDIAG  =      T    sub-space diagonalisation (order eigenvalues)
   LSUBROT=      F    optimize rotation matrix (better conditioning)
   TURBO    =      0    0=normal 1=particle mesh
   IRESTART =      0    0=no restart 2=restart with 2 vectors
   NREBOOT  =      0    no. of reboots
   NMIN     =      0    reboot dimension
   EREF     =   0.00    reference energy to select bands
   IMIX   =      4    mixing-type and parameters
     AMIX     =   0.40;   BMIX     =  1.00
     AMIX_MAG =   1.60;   BMIX_MAG =  1.00
     AMIN     =   0.10
     WC   =   100.;   INIMIX=   1;  MIXPRE=   1;  MAXMIX= -45

 Intra band minimization:
   WEIMIN = 0.0000     energy-eigenvalue tresh-hold
   EBREAK =  0.12E-08  absolut break condition
   DEPER  =   0.30     relativ break condition  

   TIME   =   0.40     timestep for ELM

  volume/ion in A,a.u.               =      42.95       289.81
  Fermi-wavevector in a.u.,A,eV,Ry     =   0.908245  1.716334 11.223567  0.824909
  Thomas-Fermi vector in A             =   2.032148
 
 Write flags
   LWAVE        =      T    write WAVECAR
   LDOWNSAMPLE  =      F    k-point downsampling of WAVECAR
   LCHARG       =      T    write CHGCAR
   LVTOT        =      F    write LOCPOT, total local potential
   LVHAR        =      F    write LOCPOT, Hartree potential only
   LELF         =      F    write electronic localiz. function (ELF)
   LORBIT       =     10    0 simple, 1 ext, 2 COOP (PROOUT), +10 PAW based schemes


 Dipole corrections
   LMONO  =      F    monopole corrections only (constant potential shift)
   LDIPOL =      F    correct potential (dipole corrections)
   IDIPOL =      0    1-x, 2-y, 3-z, 4-all directions 
   EPSILON=  1.0000000 bulk dielectric constant

 Exchange correlation treatment:
   GGA     =    --    GGA type
   LEXCH   =     8    internal setting for exchange type
   VOSKOWN=      0    Vosko Wilk Nusair interpolation
   LHFCALC =     F    Hartree Fock is set to
   LHFONE  =     F    Hartree Fock one center treatment
   AEXX    =    0.0000 exact exchange contribution

 Linear response parameters
   LEPSILON=     F    determine dielectric tensor
   LRPA    =     F    only Hartree local field effects (RPA)
   LNABLA  =     F    use nabla operator in PAW spheres
   LVEL    =     F    velocity operator in full k-point grid
   LINTERFAST=   F  fast interpolation
   KINTER  =     0    interpolate to denser k-point grid
   CSHIFT  =0.1000    complex shift for real part using Kramers Kronig
   OMEGAMAX=  -1.0    maximum frequency
   DEG_THRESHOLD= 0.2000000E-02 threshold for treating states as degnerate
   RTIME   =   -0.100 relaxation time in fs
  (WPLASMAI=    0.000 imaginary part of plasma frequency in eV, 0.658/RTIME)
   DFIELD  = 0.0000000 0.0000000 0.0000000 field for delta impulse in time
 
 Orbital magnetization related:
   ORBITALMAG=     F  switch on orbital magnetization
   LCHIMAG   =     F  perturbation theory with respect to B field
   DQ        =  0.001000  dq finite difference perturbation B field
   LLRAUG    =     F  two centre corrections for induced B field



--------------------------------------------------------------------------------------------------------


 Static calculation
 charge density and potential will be updated during run
 non-spin polarized calculation
 Variant of blocked Davidson
 Davidson routine will perform the subspace rotation
 perform sub-space diagonalisation
    after iterative eigenvector-optimisation
 modified Broyden-mixing scheme, WC =      100.0
 initial mixing is a Kerker type mixing with AMIX =  0.4000 and BMIX =      1.0000
 Hartree-type preconditioning will be used
 using additional bands           35
 reciprocal scheme for non local part
 use partial core corrections
 calculate Harris-corrections to forces 
   (improved forces if not selfconsistent)
 use gradient corrections 
 use of overlap-Matrix (Vanderbilt PP)
 Fermi weights with tetrahedron method with Bloechl corrections


--------------------------------------------------------------------------------------------------------


  energy-cutoff  :      250.00
  volume of cell :     2061.38
      direct lattice vectors                 reciprocal lattice vectors
    12.727351856  0.001175606  0.000881185     0.078570941 -0.000005164 -0.000007352
     0.000836411 12.725581598  0.000772226    -0.000007258  0.078581871 -0.000005196
     0.001190937  0.000841731 12.727482114    -0.000005439 -0.000004768  0.078570137

  length of vectors
    12.727351941 12.725581649 12.727482197     0.078570942  0.078581871  0.078570137


 
 old parameters found on file WAVECAR:
  energy-cutoff  :      250.00
  volume of cell :     2061.38
      direct lattice vectors                 reciprocal lattice vectors
    12.727351856  0.001175606  0.000881185     0.078570941 -0.000005164 -0.000007352
     0.000836411 12.725581598  0.000772226    -0.000007258  0.078581871 -0.000005196
     0.001190937  0.000841731 12.727482114    -0.000005439 -0.000004768  0.078570137

  length of vectors

 
 k-points in units of 2pi/SCALE and weight: agbii                                   
   0.00000000  0.00000000  0.00000000       0.016
   0.01964274 -0.00000129 -0.00000184       0.031
   0.00000136  0.00000119 -0.01964253       0.031
   0.03928547 -0.00000258 -0.00000368       0.016
  -0.00000272 -0.00000238  0.03928507       0.016
  -0.00000181  0.01964547 -0.00000130       0.031
   0.01964092  0.01964418 -0.00000314       0.031
   0.00000317 -0.01964428 -0.01964124       0.031
   0.03928366  0.01964289 -0.00000497       0.031
  -0.00000091 -0.01964785  0.03928637       0.031
  -0.01964455  0.01964676  0.00000054       0.031
   0.00000045 -0.01964666  0.01964383       0.031
  -0.00000363  0.03929094 -0.00000260       0.016
   0.01963911  0.03928964 -0.00000444       0.031
  -0.00000227  0.03929213 -0.01964513       0.031
   0.03928184  0.03928835 -0.00000627       0.016
  -0.00000635  0.03928855  0.03928247       0.016
   0.01964138 -0.00000248  0.01964070       0.031
   0.03928411 -0.00000377  0.01963886       0.031
  -0.01964545 -0.00000109  0.03928691       0.031
  -0.01964410  0.00000010  0.01964437       0.031
   0.01963956  0.01964298  0.01963940       0.031
   0.03928230  0.01964169  0.01963756       0.031
  -0.01964364 -0.01964656  0.03928821       0.031
  -0.01964591  0.01964557  0.01964307       0.031
  -0.01964228 -0.01964537  0.01964567       0.031
   0.01963775  0.03928845  0.01963810       0.031
   0.03928048  0.03928716  0.01963626       0.031
  -0.01964908  0.03928984  0.03928431       0.031
  -0.01964772  0.03929103  0.01964177       0.031
   0.01964319 -0.01964795  0.01964200       0.031
   0.03928593 -0.01964924  0.01964016       0.031
  -0.01964727  0.01964437  0.03928561       0.031
   0.03928275 -0.00000497  0.03928139       0.016
   0.03928094  0.01964050  0.03928009       0.031
   0.03927912  0.03928597  0.03927879       0.016
 
 k-points in reciprocal lattice and weights: agbii                                   
   0.00000000  0.00000000  0.00000000       0.016
   0.25000000  0.00000000  0.00000000       0.031
   0.00000000  0.00000000 -0.25000000       0.031
   0.50000000  0.00000000  0.00000000       0.016
  -0.00000000 -0.00000000  0.50000000       0.016
   0.00000000  0.25000000 -0.00000000       0.031
   0.25000000  0.25000000 -0.00000000       0.031
  -0.00000000 -0.25000000 -0.25000000       0.031
   0.50000000  0.25000000 -0.00000000       0.031
  -0.00000000 -0.25000000  0.50000000       0.031
  -0.25000000  0.25000000  0.00000000       0.031
  -0.00000000 -0.25000000  0.25000000       0.031
   0.00000000  0.50000000  0.00000000       0.016
   0.25000000  0.50000000  0.00000000       0.031
   0.00000000  0.50000000 -0.25000000       0.031
   0.50000000  0.50000000  0.00000000       0.016
   0.00000000  0.50000000  0.50000000       0.016
   0.25000000 -0.00000000  0.25000000       0.031
   0.50000000 -0.00000000  0.25000000       0.031
  -0.25000000 -0.00000000  0.50000000       0.031
  -0.25000000 -0.00000000  0.25000000       0.031
   0.25000000  0.25000000  0.25000000       0.031
   0.50000000  0.25000000  0.25000000       0.031
  -0.25000000 -0.25000000  0.50000000       0.031
  -0.25000000  0.25000000  0.25000000       0.031
  -0.25000000 -0.25000000  0.25000000       0.031
   0.25000000  0.50000000  0.25000000       0.031
   0.50000000  0.50000000  0.25000000       0.031
  -0.25000000  0.50000000  0.50000000       0.031
  -0.25000000  0.50000000  0.25000000       0.031
   0.25000000 -0.25000000  0.25000000       0.031
   0.50000000 -0.25000000  0.25000000       0.031
  -0.25000000  0.25000000  0.50000000       0.031
   0.50000000 -0.00000000  0.50000000       0.016
   0.50000000  0.25000000  0.50000000       0.031
   0.50000000  0.50000000  0.50000000       0.016
 
 position of ions in fractional coordinates (direct lattice) 
   0.72413906  0.77584896  0.99959064
   0.01121946  0.24479929  0.27476262
   0.02502866  0.47507749  0.49967871
   0.25315548  0.00200714  0.24908159
   0.74082435  0.00614436  0.77465598
   0.49426944  0.75995700  0.22502092
   0.49836030  0.24708286  0.75143106
   0.25507448  0.48783318  0.72475331
   0.99869653  0.00169755  0.00382790
   0.25014137  0.24979363  0.99987390
   0.49817719  0.50147994  0.99600642
   0.99802734  0.74817467  0.75008373
   0.50036692  0.00000903  0.49991479
   0.75193445  0.50224020  0.24947885
   0.75054552  0.24891890  0.50315024
   0.25135915  0.74972389  0.49668098
   0.25003073  0.00519530  0.99321281
   0.25567287  0.00075851  0.50697003
   0.25287519  0.49632936  0.00652628
   0.25568671  0.50937236  0.49170208
   0.75858646  0.00612004  0.00838415
   0.74674104  0.00354567  0.49318742
   0.74468254  0.48919822  0.00346475
   0.73950088  0.49544844  0.49567875
   0.00371241  0.24709267  0.99310349
   0.99086139  0.24449966  0.50813743
   0.01098742  0.75523940  0.99610675
   0.00481072  0.76068498  0.50393179
   0.49477848  0.25003292  0.00662518
   0.49960738  0.24466160  0.49273490
   0.49380890  0.74157224  0.99122405
   0.49668082  0.75355012  0.50658341
   0.01016893  0.00635766  0.24157713
   0.98585654  0.99812338  0.75264291
   0.99223100  0.49045361  0.27038137
   0.01041824  0.50778118  0.72925299
   0.49093736  0.98893277  0.25565790
   0.51179329  0.00929972  0.74413764
   0.50196632  0.51400807  0.24700218
   0.49315495  0.48969466  0.75811614
   0.24021326  0.23893535  0.24409921
   0.26119149  0.25896245  0.75568610
   0.25512957  0.76211314  0.25825865
   0.24781703  0.73879141  0.74680668
   0.76206914  0.25232407  0.25281318
   0.73816337  0.24541063  0.74145328
   0.74182645  0.74237696  0.22834237
   0.75785596  0.75788922  0.77110316
 
 position of ions in cartesian coordinates  (Angst):
   9.21821195  9.87482190 12.72350921
   0.14332599  3.11545781  3.49723521
   0.31954099  6.04608738  6.36004080
   3.22229713  0.02604930  3.17040607
   9.42965988  0.07971353  9.86007764
   6.29164474  9.67166524  2.86497211
   6.34390845  3.14549146  9.56445534
   3.24769382  6.20887091  9.22488622
  12.71076816  0.02277957  0.04960093
   3.18503690  3.17990488 12.72629055
   6.34208202  6.38304791 12.67748015
  12.70376415  9.52276242  9.54813452
   6.36894125  0.00112390  6.36309750
   9.57085156  6.39239265  3.17628806
   9.55326428  3.16894367  6.40468926
   3.20035499  9.54138614  6.32229874
   3.18341624  0.06724320 12.64132255
   3.25464294  0.01037981  6.45267787
   3.21885443  6.31638261  0.08366927
   3.25522635  6.48277395  6.25874813
   9.65481194  0.07877998  0.10738235
   9.50462626  0.04641378  6.27769479
   9.47824996  6.22621024  0.04513155
   9.41289257  6.30615618  6.30977665
   0.04863858  3.14523825 12.63990101
  12.61185123  3.11299291  6.46837198
   0.14165875  9.61171194 12.67852380
   0.06246418  9.68058858  6.41437453
   6.29743682  3.18240162  0.08495088
   6.35947031  3.11446329  6.27190379
   6.28668033  9.43835295 12.61679413
   6.32266508  9.59037381  6.44855082
   0.12971657  0.08112017  3.07468241
  12.54907419 12.70349306  9.58088863
  12.62920534  6.24270154  3.44252712
   0.13388978  6.46243697  9.28195567
   6.24946419 12.58553696  3.25507767
   6.51466734  0.11957243  9.47145669
   6.38942600  6.54184961  3.14455508
   6.27786906  6.23286718  9.64972232
   3.05776929  3.04107917  3.10716454
   3.32539255  3.29639088  9.61841141
   3.24806887  9.69885024  3.28779564
   3.15556185  9.40247032  9.50575759
   9.69963416  3.21207919  3.21854163
   9.39595323  3.12448485  9.43767334
   9.44237907  9.44824286  2.90745044
   9.64705173  9.64612108  9.81545470
 


--------------------------------------------------------------------------------------------------------


 k-point   1 :   0.0000 0.0000 0.0000  plane waves:   18613
 k-point   2 :   0.2500 0.0000 0.0000  plane waves:   18533
 k-point   3 :   0.0000 0.0000-0.2500  plane waves:   18533
 k-point   4 :   0.5000 0.0000 0.0000  plane waves:   18484
 k-point   5 :  -0.0000-0.0000 0.5000  plane waves:   18486
 k-point   6 :   0.0000 0.2500-0.0000  plane waves:   18533
 k-point   7 :   0.2500 0.2500-0.0000  plane waves:   18509
 k-point   8 :  -0.0000-0.2500-0.2500  plane waves:   18509
 k-point   9 :   0.5000 0.2500-0.0000  plane waves:   18506
 k-point  10 :  -0.0000-0.2500 0.5000  plane waves:   18506
 k-point  11 :  -0.2500 0.2500 0.0000  plane waves:   18509
 k-point  12 :  -0.0000-0.2500 0.2500  plane waves:   18509
 k-point  13 :   0.0000 0.5000 0.0000  plane waves:   18488
 k-point  14 :   0.2500 0.5000 0.0000  plane waves:   18506
 k-point  15 :   0.0000 0.5000-0.2500  plane waves:   18506
 k-point  16 :   0.5000 0.5000 0.0000  plane waves:   18528
 k-point  17 :   0.0000 0.5000 0.5000  plane waves:   18528
 k-point  18 :   0.2500-0.0000 0.2500  plane waves:   18509
 k-point  19 :   0.5000-0.0000 0.2500  plane waves:   18506
 k-point  20 :  -0.2500-0.0000 0.5000  plane waves:   18506
 k-point  21 :  -0.2500-0.0000 0.2500  plane waves:   18509
 k-point  22 :   0.2500 0.2500 0.2500  plane waves:   18511
 k-point  23 :   0.5000 0.2500 0.2500  plane waves:   18478
 k-point  24 :  -0.2500-0.2500 0.5000  plane waves:   18478
 k-point  25 :  -0.2500 0.2500 0.2500  plane waves:   18521
 k-point  26 :  -0.2500-0.2500 0.2500  plane waves:   18520
 k-point  27 :   0.2500 0.5000 0.2500  plane waves:   18478
 k-point  28 :   0.5000 0.5000 0.2500  plane waves:   18500
 k-point  29 :  -0.2500 0.5000 0.5000  plane waves:   18500
 k-point  30 :  -0.2500 0.5000 0.2500  plane waves:   18478
 k-point  31 :   0.2500-0.2500 0.2500  plane waves:   18526
 k-point  32 :   0.5000-0.2500 0.2500  plane waves:   18478
 k-point  33 :  -0.2500 0.2500 0.5000  plane waves:   18478
 k-point  34 :   0.5000-0.0000 0.5000  plane waves:   18528
 k-point  35 :   0.5000 0.2500 0.5000  plane waves:   18500
 k-point  36 :   0.5000 0.5000 0.5000  plane waves:   18504

 maximum and minimum number of plane-waves per node :     18613    18478

 maximum number of plane-waves:     18613
 maximum index in each direction: 
   IXMAX=   16   IYMAX=   16   IZMAX=   16
   IXMIN=  -16   IYMIN=  -16   IZMIN=  -16


 serial   3D FFT for wavefunctions
 parallel 3D FFT for charge:
    minimum data exchange during FFTs selected (reduces bandwidth)


 total amount of memory used by VASP MPI-rank0  2782079. kBytes
=======================================================================

   base      :      30000. kBytes
   nonl-proj :     303764. kBytes
   fftplans  :      34720. kBytes
   grid      :      70000. kBytes
   one-center:        746. kBytes
   wavefun   :    2342849. kBytes
 
     INWAV:  cpu time    4.5224: real time    4.7567
 Broyden mixing: mesh for mixing (old mesh)
   NGX = 33   NGY = 33   NGZ = 33
  (NGX  =100   NGY  =100   NGZ  =100)
  gives a total of  35937 points

 initial charge density was supplied:
 number of electron     352.0000466 magnetization 
 keeping initial charge density in first step


--------------------------------------------------------------------------------------------------------


 Maximum index for augmentation-charges         5605 (set IRDMAX)


--------------------------------------------------------------------------------------------------------


 First call to EWALD:  gamma=   0.139
 Maximum number of real-space cells 3x 3x 3
 Maximum number of reciprocal cells 3x 3x 3

    FEWALD:  cpu time    0.0028: real time    0.0028


--------------------------------------- Iteration      1(   1)  ---------------------------------------


    POTLOK:  cpu time    0.5864: real time    0.5966
    SETDIJ:  cpu time    0.0273: real time    0.0273
     EDDAV:  cpu time   58.8964: real time   58.8981
 BZINTS: Fermi energy:    2.053930;  352.000000 electrons
         Band energy:-0.758906E+03;  BLOECHL correction:    0.000000
       DOS:  cpu time    0.0536: real time    0.0536
    CHARGE:  cpu time    1.2154: real time    1.2155
    MIXING:  cpu time    0.0230: real time    0.0230
    --------------------------------------------
      LOOP:  cpu time   60.8022: real time   60.8141

 eigenvalue-minimisations  : 10544
 total energy-change (2. order) :-0.1199644E+03  (-0.2954056E-06)
 number of electron     352.0000466 magnetization 
 augmentation part      -23.1227247 magnetization 

 Broyden mixing:
  rms(total) = 0.67712E-03    rms(broyden)= 0.67708E-03
  rms(prec ) = 0.80114E-03
  weight for this iteration     100.00

 Free energy of the ion-electron system (eV)
  ---------------------------------------------------
  alpha Z        PSCENC =       225.91575363
  Ewald energy   TEWEN  =    -13869.38909438
  -Hartree energ DENC   =     -6079.42459906
  -exchange      EXHF   =         0.00000000
  -V(xc)+E(xc)   XCENC  =     -1392.36681913
  PAW double counting   =     22640.02029427   -20497.53771065
  entropy T*S    EENTRO =         0.00000000
  eigenvalues    EBANDS =      -758.90599607
  atomic energy  EATOM  =     19611.72375700
  Solvation  Ediel_sol  =         0.00000000
  ---------------------------------------------------
  free energy    TOTEN  =      -119.96441439 eV

  energy without entropy =     -119.96441439  energy(sigma->0) =     -119.96441439


--------------------------------------------------------------------------------------------------------




--------------------------------------- Iteration      1(   2)  ---------------------------------------


    POTLOK:  cpu time    0.5601: real time    0.5603
    SETDIJ:  cpu time    0.0592: real time    0.0591
     EDDAV:  cpu time   50.0961: real time   50.0973
 BZINTS: Fermi energy:    2.053883;  352.000000 electrons
         Band energy:-0.758904E+03;  BLOECHL correction:   -0.000000
       DOS:  cpu time    0.0559: real time    0.0558
    --------------------------------------------
      LOOP:  cpu time   50.7712: real time   50.7726

 eigenvalue-minimisations  :  8216
 total energy-change (2. order) : 0.1148474E-06  (-0.1235895E-06)
 number of electron     352.0000466 magnetization 
 augmentation part      -23.1227247 magnetization 

 Free energy of the ion-electron system (eV)
  ---------------------------------------------------
  alpha Z        PSCENC =       225.91575363
  Ewald energy   TEWEN  =    -13869.38909438
  -Hartree energ DENC   =     -6079.42672863
  -exchange      EXHF   =         0.00000000
  -V(xc)+E(xc)   XCENC  =     -1392.36628809
  PAW double counting   =     22639.57897138   -20497.09717709
  entropy T*S    EENTRO =         0.00000000
  eigenvalues    EBANDS =      -758.90360810
  atomic energy  EATOM  =     19611.72375700
  Solvation  Ediel_sol  =         0.00000000
  ---------------------------------------------------
  free energy    TOTEN  =      -119.96441428 eV

  energy without entropy =     -119.96441428  energy(sigma->0) =     -119.96441428


--------------------------------------------------------------------------------------------------------




 average (electrostatic) potential at core
  the test charge radii are     1.1249  1.4024  1.1875
  (the norm of the test charge is              1.0000)
       1 -75.1930       2 -75.0690       3 -75.1921       4 -75.0028       5 -75.0623
       6 -75.0621       7 -75.0037       8 -75.0705       9 -65.5356      10 -65.5107
      11 -65.5360      12 -65.4766      13 -65.5027      14 -65.4778      15 -65.5298
      16 -65.5281      17 -93.3248      18 -93.3130      19 -93.3398      20 -93.2288
      21 -93.2336      22 -93.3348      23 -93.3205      24 -93.3215      25 -93.3400
      26 -93.2283      27 -93.3203      28 -93.3203      29 -93.3259      30 -93.3116
      31 -93.2344      32 -93.3332      33 -93.0819      34 -93.1983      35 -93.0965
      36 -93.1003      37 -92.9970      38 -92.9977      39 -93.1957      40 -93.0836
      41 -93.0128      42 -93.0121      43 -93.0763      44 -93.1738      45 -93.1812
      46 -93.0803      47 -93.0836      48 -93.0783
 
 
 
 E-fermi :   2.0539     XC(G=0):  -7.7998     alpha+bet : -7.7648


 k-point     1 :       0.0000    0.0000    0.0000
  band No.  band energies     occupation 
      1     -10.8463      2.00000
      2     -10.7171      2.00000
      3     -10.6716      2.00000
      4     -10.5365      2.00000
      5     -10.4827      2.00000
      6     -10.2582      2.00000
      7     -10.2230      2.00000
      8     -10.0434      2.00000
      9      -9.8906      2.00000
     10      -9.8834      2.00000
     11      -9.8688      2.00000
     12      -9.8541      2.00000
     13      -9.8421      2.00000
     14      -9.8093      2.00000
     15      -9.8062      2.00000
     16      -9.7437      2.00000
     17      -9.7316      2.00000
     18      -9.7172      2.00000
     19      -9.7082      2.00000
     20      -9.7040      2.00000
     21      -9.6841      2.00000
     22      -9.6614      2.00000
     23      -9.6544      2.00000
     24      -9.6268      2.00000
     25      -9.6145      2.00000
     26      -9.6074      2.00000
     27      -9.5901      2.00000
     28      -9.5640      2.00000
     29      -9.5546      2.00000
     30      -9.5515      2.00000
     31      -9.5416      2.00000
     32      -9.5112      2.00000
     33      -8.2250      2.00000
     34      -8.1249      2.00000
     35      -8.1145      2.00000
     36      -7.8833      2.00000
     37      -7.8578      2.00000
     38      -7.6477      2.00000
     39      -7.6321      2.00000
     40      -7.6310      2.00000
     41      -1.8235      2.00000
     42      -1.7636      2.00000
     43      -1.7207      2.00000
     44      -1.7051      2.00000
     45      -1.6569      2.00000
     46      -1.5889      2.00000
     47      -1.5341      2.00000
     48      -1.4796      2.00000
     49      -1.4726      2.00000
     50      -1.4414      2.00000
     51      -1.4361      2.00000
     52      -1.3947      2.00000
     53      -1.3568      2.00000
     54      -1.3308      2.00000
     55      -1.3226      2.00000
     56      -1.2793      2.00000
     57      -1.2353      2.00000
     58      -1.2275      2.00000
     59      -1.1587      2.00000
     60      -1.1129      2.00000
     61      -1.1022      2.00000
     62      -1.0679      2.00000
     63      -1.0229      2.00000
     64      -1.0200      2.00000
     65      -1.0165      2.00000
     66      -1.0001      2.00000
     67      -0.9878      2.00000
     68      -0.9851      2.00000
     69      -0.9648      2.00000
     70      -0.9237      2.00000
     71      -0.9205      2.00000
     72      -0.9181      2.00000
     73      -0.8884      2.00000
     74      -0.8525      2.00000
     75      -0.8474      2.00000
     76      -0.8222      2.00000
     77      -0.8139      2.00000
     78      -0.8078      2.00000
     79      -0.7807      2.00000
     80      -0.7341      2.00000
     81      -0.7033      2.00000
     82      -0.7006      2.00000
     83      -0.6646      2.00000
     84      -0.6421      2.00000
     85      -0.6340      2.00000
     86      -0.6185      2.00000
     87      -0.5805      2.00000
     88      -0.5536      2.00000
     89      -0.5432      2.00000
     90      -0.5097      2.00000
     91      -0.4925      2.00000
     92      -0.4736      2.00000
     93      -0.4677      2.00000
     94      -0.4199      2.00000
     95      -0.4026      2.00000
     96      -0.3779      2.00000
     97      -0.3589      2.00000
     98      -0.3533      2.00000
     99      -0.3318      2.00000
    100      -0.3241      2.00000
    101      -0.2874      2.00000
    102      -0.2660      2.00000
    103      -0.2598      2.00000
    104      -0.2279      2.00000
    105      -0.2126      2.00000
    106      -0.2046      2.00000
    107      -0.1770      2.00000
    108      -0.1577      2.00000
    109      -0.1311      2.00000
    110      -0.1213      2.00000
    111      -0.0641      2.00000
    112      -0.0512      2.00000
    113       0.0744      2.00000
    114       0.1247      2.00000
    115       0.1628      2.00000
    116       0.1752      2.00000
    117       0.1812      2.00000
    118       0.2112      2.00000
    119       0.2346      2.00000
    120       0.2404      2.00000
    121       0.2527      2.00000
    122       0.2874      2.00000
    123       0.3511      2.00000
    124       0.3958      2.00000
    125       0.3970      2.00000
    126       0.4142      2.00000
    127       0.4767      2.00000
    128       0.5160      2.00000
    129       0.5266      2.00000
    130       0.5272      2.00000
    131       0.5409      2.00000
    132       0.5492      2.00000
    133       0.5822      2.00000
    134       0.6362      2.00000
    135       0.6900      2.00000
    136       0.7056      2.00000
    137       0.7100      2.00000
    138       0.7152      2.00000
    139       0.7250      2.00000
    140       0.7772      2.00000
    141       0.7851      2.00000
    142       0.7895      2.00000
    143       0.8194      2.00000
    144       0.8367      2.00000
    145       0.8446      2.00000
    146       0.8888      2.00000
    147       0.9366      2.00000
    148       0.9602      2.00000
    149       0.9857      2.00000
    150       1.0270      2.00000
    151       1.0629      2.00000
    152       1.0911      2.00000
    153       1.1016      2.00000
    154       1.1470      2.00000
    155       1.1611      2.00000
    156       1.1703      2.00000
    157       1.1935      2.00000
    158       1.2011      2.00000
    159       1.2364      2.00000
    160       1.3037      2.00000
    161       1.3564      2.00000
    162       1.3988      2.00000
    163       1.4515      2.00000
    164       1.4802      2.00000
    165       1.5291      2.00000
    166       1.5421      2.00000
    167       1.5680      2.00000
    168       1.5947      2.00000
    169       1.7528      2.00000
    170       1.7588      2.00000
    171       1.8714      2.00000
    172       1.8868      2.00000
    173       1.9974      2.00000
    174       2.0076      2.00000
    175       2.0243      2.00000
    176       2.0539      2.00000
    177       3.8361      0.00000
    178       4.0004      0.00000
    179       4.0031      0.00000
    180       4.1179      0.00000
    181       4.1579      0.00000
    182       4.3383      0.00000
    183       4.3398      0.00000
    184       4.3900      0.00000
    185       4.4177      0.00000
    186       4.4341      0.00000
    187       4.5149      0.00000
    188       4.5276      0.00000
    189       4.5519      0.00000
    190       4.5609      0.00000
    191       4.5963      0.00000
    192       4.6041      0.00000
    193       4.6413      0.00000
    194       4.6985      0.00000
    195       4.7297      0.00000
    196       4.7322      0.00000
    197       4.7938      0.00000
    198       4.8243      0.00000
    199       4.8311      0.00000
    200       4.9507      0.00000
    201       5.0686      0.00000
    202       5.2653      0.00000
    203       5.5787      0.00000
    204       5.7232      0.00000
    205       5.9086      0.00000
    206       5.9286      0.00000
    207       5.9447      0.00000
    208       5.9820      0.00000
    209       7.1535      0.00000
    210       7.2609      0.00000
    211       7.2696      0.00000

 k-point     2 :       0.2500    0.0000    0.0000
  band No.  band energies     occupation 
      1     -10.8315      2.00000
      2     -10.7229      2.00000
      3     -10.6917      2.00000
      4     -10.5337      2.00000
      5     -10.4794      2.00000
      6     -10.2568      2.00000
      7     -10.2120      2.00000
      8     -10.0542      2.00000
      9      -9.8959      2.00000
     10      -9.8911      2.00000
     11      -9.8744      2.00000
     12      -9.8542      2.00000
     13      -9.8449      2.00000
     14      -9.7994      2.00000
     15      -9.7874      2.00000
     16      -9.7461      2.00000
     17      -9.7326      2.00000
     18      -9.7180      2.00000
     19      -9.7006      2.00000
     20      -9.6949      2.00000
     21      -9.6906      2.00000
     22      -9.6611      2.00000
     23      -9.6494      2.00000
     24      -9.6330      2.00000
     25      -9.6122      2.00000
     26      -9.6092      2.00000
     27      -9.5853      2.00000
     28      -9.5692      2.00000
     29      -9.5570      2.00000
     30      -9.5520      2.00000
     31      -9.5403      2.00000
     32      -9.5168      2.00000
     33      -8.2303      2.00000
     34      -8.1221      2.00000
     35      -8.1139      2.00000
     36      -7.8820      2.00000
     37      -7.8584      2.00000
     38      -7.6795      2.00000
     39      -7.6303      2.00000
     40      -7.6013      2.00000
     41      -1.8019      2.00000
     42      -1.7490      2.00000
     43      -1.7194      2.00000
     44      -1.6910      2.00000
     45      -1.6503      2.00000
     46      -1.6106      2.00000
     47      -1.5635      2.00000
     48      -1.5478      2.00000
     49      -1.4961      2.00000
     50      -1.4513      2.00000
     51      -1.3956      2.00000
     52      -1.3844      2.00000
     53      -1.3506      2.00000
     54      -1.3258      2.00000
     55      -1.3028      2.00000
     56      -1.2733      2.00000
     57      -1.2258      2.00000
     58      -1.2020      2.00000
     59      -1.1803      2.00000
     60      -1.1309      2.00000
     61      -1.1176      2.00000
     62      -1.0855      2.00000
     63      -1.0520      2.00000
     64      -1.0354      2.00000
     65      -1.0198      2.00000
     66      -1.0012      2.00000
     67      -0.9784      2.00000
     68      -0.9660      2.00000
     69      -0.9476      2.00000
     70      -0.9357      2.00000
     71      -0.9159      2.00000
     72      -0.9045      2.00000
     73      -0.8869      2.00000
     74      -0.8725      2.00000
     75      -0.8393      2.00000
     76      -0.8195      2.00000
     77      -0.8128      2.00000
     78      -0.8102      2.00000
     79      -0.7640      2.00000
     80      -0.7554      2.00000
     81      -0.7067      2.00000
     82      -0.6814      2.00000
     83      -0.6614      2.00000
     84      -0.6494      2.00000
     85      -0.6325      2.00000
     86      -0.5933      2.00000
     87      -0.5831      2.00000
     88      -0.5554      2.00000
     89      -0.5129      2.00000
     90      -0.5007      2.00000
     91      -0.4824      2.00000
     92      -0.4746      2.00000
     93      -0.4447      2.00000
     94      -0.4207      2.00000
     95      -0.4010      2.00000
     96      -0.3907      2.00000
     97      -0.3751      2.00000
     98      -0.3703      2.00000
     99      -0.3431      2.00000
    100      -0.3157      2.00000
    101      -0.3046      2.00000
    102      -0.2837      2.00000
    103      -0.2292      2.00000
    104      -0.2248      2.00000
    105      -0.2102      2.00000
    106      -0.1799      2.00000
    107      -0.1619      2.00000
    108      -0.1598      2.00000
    109      -0.1479      2.00000
    110      -0.1358      2.00000
    111      -0.1023      2.00000
    112      -0.0527      2.00000
    113       0.0807      2.00000
    114       0.1095      2.00000
    115       0.1302      2.00000
    116       0.1472      2.00000
    117       0.1758      2.00000
    118       0.2261      2.00000
    119       0.2471      2.00000
    120       0.2626      2.00000
    121       0.2849      2.00000
    122       0.3343      2.00000
    123       0.3505      2.00000
    124       0.3546      2.00000
    125       0.4158      2.00000
    126       0.4457      2.00000
    127       0.4652      2.00000
    128       0.5110      2.00000
    129       0.5253      2.00000
    130       0.5541      2.00000
    131       0.5649      2.00000
    132       0.5906      2.00000
    133       0.6012      2.00000
    134       0.6250      2.00000
    135       0.6487      2.00000
    136       0.6854      2.00000
    137       0.6984      2.00000
    138       0.7170      2.00000
    139       0.7536      2.00000
    140       0.7588      2.00000
    141       0.7749      2.00000
    142       0.8115      2.00000
    143       0.8177      2.00000
    144       0.8308      2.00000
    145       0.8633      2.00000
    146       0.8971      2.00000
    147       0.9702      2.00000
    148       0.9863      2.00000
    149       0.9900      2.00000
    150       1.0099      2.00000
    151       1.0186      2.00000
    152       1.0781      2.00000
    153       1.1240      2.00000
    154       1.1470      2.00000
    155       1.1513      2.00000
    156       1.1533      2.00000
    157       1.1858      2.00000
    158       1.2085      2.00000
    159       1.2407      2.00000
    160       1.2925      2.00000
    161       1.3526      2.00000
    162       1.4060      2.00000
    163       1.4625      2.00000
    164       1.4757      2.00000
    165       1.5224      2.00000
    166       1.5469      2.00000
    167       1.5942      2.00000
    168       1.6160      2.00000
    169       1.7494      2.00000
    170       1.7622      2.00000
    171       1.8489      2.00000
    172       1.8736      2.00000
    173       1.9632      2.00000
    174       1.9726      2.00000
    175       2.0042      2.00000
    176       2.0164      2.00000
    177       3.8950      0.00000
    178       3.9858      0.00000
    179       4.0246      0.00000
    180       4.1402      0.00000
    181       4.1615      0.00000
    182       4.2979      0.00000
    183       4.3181      0.00000
    184       4.3891      0.00000
    185       4.4208      0.00000
    186       4.4456      0.00000
    187       4.4648      0.00000
    188       4.5039      0.00000
    189       4.5734      0.00000
    190       4.5809      0.00000
    191       4.5925      0.00000
    192       4.6215      0.00000
    193       4.6476      0.00000
    194       4.6555      0.00000
    195       4.6948      0.00000
    196       4.7539      0.00000
    197       4.7819      0.00000
    198       4.8226      0.00000
    199       4.8541      0.00000
    200       4.9294      0.00000
    201       5.1956      0.00000
    202       5.3498      0.00000
    203       5.5896      0.00000
    204       5.7349      0.00000
    205       5.8070      0.00000
    206       5.8274      0.00000
    207       5.9478      0.00000
    208       5.9612      0.00000
    209       7.2652      0.00000
    210       7.2999      0.00000
    211       7.3696      0.00000

 k-point     3 :       0.0000    0.0000   -0.2500
  band No.  band energies     occupation 
      1     -10.8321      2.00000
      2     -10.7471      2.00000
      3     -10.6473      2.00000
      4     -10.5663      2.00000
      5     -10.4471      2.00000
      6     -10.3193      2.00000
      7     -10.1620      2.00000
      8     -10.0596      2.00000
      9      -9.8925      2.00000
     10      -9.8838      2.00000
     11      -9.8622      2.00000
     12      -9.8550      2.00000
     13      -9.8465      2.00000
     14      -9.8259      2.00000
     15      -9.7860      2.00000
     16      -9.7386      2.00000
     17      -9.7356      2.00000
     18      -9.7224      2.00000
     19      -9.7021      2.00000
     20      -9.6955      2.00000
     21      -9.6844      2.00000
     22      -9.6767      2.00000
     23      -9.6404      2.00000
     24      -9.6282      2.00000
     25      -9.6221      2.00000
     26      -9.6085      2.00000
     27      -9.5821      2.00000
     28      -9.5603      2.00000
     29      -9.5550      2.00000
     30      -9.5520      2.00000
     31      -9.5436      2.00000
     32      -9.5178      2.00000
     33      -8.2189      2.00000
     34      -8.1660      2.00000
     35      -8.0660      2.00000
     36      -7.9413      2.00000
     37      -7.8021      2.00000
     38      -7.6779      2.00000
     39      -7.6350      2.00000
     40      -7.6103      2.00000
     41      -1.8082      2.00000
     42      -1.7501      2.00000
     43      -1.7345      2.00000
     44      -1.6847      2.00000
     45      -1.6785      2.00000
     46      -1.5940      2.00000
     47      -1.5456      2.00000
     48      -1.5019      2.00000
     49      -1.4620      2.00000
     50      -1.4549      2.00000
     51      -1.4373      2.00000
     52      -1.3982      2.00000
     53      -1.3403      2.00000
     54      -1.3207      2.00000
     55      -1.2902      2.00000
     56      -1.2783      2.00000
     57      -1.2724      2.00000
     58      -1.2045      2.00000
     59      -1.1543      2.00000
     60      -1.1449      2.00000
     61      -1.1014      2.00000
     62      -1.0933      2.00000
     63      -1.0837      2.00000
     64      -1.0322      2.00000
     65      -1.0268      2.00000
     66      -1.0047      2.00000
     67      -0.9939      2.00000
     68      -0.9531      2.00000
     69      -0.9477      2.00000
     70      -0.9287      2.00000
     71      -0.9118      2.00000
     72      -0.9074      2.00000
     73      -0.8930      2.00000
     74      -0.8603      2.00000
     75      -0.8327      2.00000
     76      -0.8177      2.00000
     77      -0.8027      2.00000
     78      -0.7823      2.00000
     79      -0.7602      2.00000
     80      -0.7491      2.00000
     81      -0.7158      2.00000
     82      -0.6746      2.00000
     83      -0.6522      2.00000
     84      -0.6347      2.00000
     85      -0.6327      2.00000
     86      -0.6088      2.00000
     87      -0.5884      2.00000
     88      -0.5547      2.00000
     89      -0.5324      2.00000
     90      -0.4888      2.00000
     91      -0.4858      2.00000
     92      -0.4766      2.00000
     93      -0.4525      2.00000
     94      -0.4165      2.00000
     95      -0.3910      2.00000
     96      -0.3806      2.00000
     97      -0.3724      2.00000
     98      -0.3491      2.00000
     99      -0.3266      2.00000
    100      -0.3223      2.00000
    101      -0.2895      2.00000
    102      -0.2776      2.00000
    103      -0.2750      2.00000
    104      -0.2269      2.00000
    105      -0.2237      2.00000
    106      -0.2104      2.00000
    107      -0.1875      2.00000
    108      -0.1806      2.00000
    109      -0.1549      2.00000
    110      -0.1469      2.00000
    111      -0.1150      2.00000
    112      -0.0816      2.00000
    113       0.0697      2.00000
    114       0.1426      2.00000
    115       0.1668      2.00000
    116       0.1783      2.00000
    117       0.2296      2.00000
    118       0.2438      2.00000
    119       0.2637      2.00000
    120       0.2768      2.00000
    121       0.2994      2.00000
    122       0.3450      2.00000
    123       0.3596      2.00000
    124       0.3988      2.00000
    125       0.4098      2.00000
    126       0.4157      2.00000
    127       0.4379      2.00000
    128       0.4656      2.00000
    129       0.4938      2.00000
    130       0.5155      2.00000
    131       0.5453      2.00000
    132       0.5601      2.00000
    133       0.6163      2.00000
    134       0.6479      2.00000
    135       0.6575      2.00000
    136       0.6689      2.00000
    137       0.7208      2.00000
    138       0.7280      2.00000
    139       0.7321      2.00000
    140       0.7555      2.00000
    141       0.7746      2.00000
    142       0.7927      2.00000
    143       0.8062      2.00000
    144       0.8428      2.00000
    145       0.8469      2.00000
    146       0.9080      2.00000
    147       0.9489      2.00000
    148       0.9547      2.00000
    149       0.9894      2.00000
    150       1.0202      2.00000
    151       1.0327      2.00000
    152       1.0911      2.00000
    153       1.1162      2.00000
    154       1.1466      2.00000
    155       1.1663      2.00000
    156       1.1764      2.00000
    157       1.1945      2.00000
    158       1.2208      2.00000
    159       1.2429      2.00000
    160       1.2693      2.00000
    161       1.4106      2.00000
    162       1.4441      2.00000
    163       1.4497      2.00000
    164       1.4579      2.00000
    165       1.5398      2.00000
    166       1.5652      2.00000
    167       1.5950      2.00000
    168       1.6047      2.00000
[...]
    143       0.8501      2.00000
    144       0.8539      2.00000
    145       0.9192      2.00000
    146       0.9274      2.00000
    147       1.0118      2.00000
    148       1.0178      2.00000
    149       1.0375      2.00000
    150       1.0426      2.00000
    151       1.0716      2.00000
    152       1.0760      2.00000
    153       1.0950      2.00000
    154       1.0967      2.00000
    155       1.1610      2.00000
    156       1.1637      2.00000
    157       1.2049      2.00000
    158       1.2067      2.00000
    159       1.2608      2.00000
    160       1.2633      2.00000
    161       1.4382      2.00000
    162       1.4418      2.00000
    163       1.5708      2.00000
    164       1.5751      2.00000
    165       1.5809      2.00000
    166       1.5842      2.00000
    167       1.6721      2.00000
    168       1.6757      2.00000
    169       1.7493      2.00000
    170       1.7527      2.00000
    171       1.8290      2.00000
    172       1.8330      2.00000
    173       1.8644      2.00000
    174       1.8680      2.00000
    175       1.9814      2.00000
    176       1.9833      2.00000
    177       3.8015      0.00000
    178       3.8080      0.00000
    179       3.9870      0.00000
    180       3.9905      0.00000
    181       4.1002      0.00000
    182       4.1031      0.00000
    183       4.2514      0.00000
    184       4.2555      0.00000
    185       4.3197      0.00000
    186       4.3242      0.00000
    187       4.4228      0.00000
    188       4.4264      0.00000
    189       4.5962      0.00000
    190       4.6006      0.00000
    191       4.6743      0.00000
    192       4.6800      0.00000
    193       4.7678      0.00000
    194       4.7726      0.00000
    195       4.8166      0.00000
    196       4.8226      0.00000
    197       4.8828      0.00000
    198       4.8844      0.00000
    199       5.0108      0.00000
    200       5.0134      0.00000
    201       5.5485      0.00000
    202       5.5513      0.00000
    203       5.5876      0.00000
    204       5.5921      0.00000
    205       5.6319      0.00000
    206       5.6490      0.00000
    207       5.7832      0.00000
    208       5.7868      0.00000
    209       7.3219      0.00000
    210       7.3250      0.00000
    211       7.4902      0.00000

 k-point    36 :       0.5000    0.5000    0.5000
  band No.  band energies     occupation 
      1     -10.7736      2.00000
      2     -10.7681      2.00000
      3     -10.6432      2.00000
      4     -10.6421      2.00000
      5     -10.3854      2.00000
      6     -10.3851      2.00000
      7     -10.1209      2.00000
      8     -10.1140      2.00000
      9      -9.9093      2.00000
     10      -9.9056      2.00000
     11      -9.8233      2.00000
     12      -9.8153      2.00000
     13      -9.7931      2.00000
     14      -9.7911      2.00000
     15      -9.7521      2.00000
     16      -9.7514      2.00000
     17      -9.7308      2.00000
     18      -9.7270      2.00000
     19      -9.7072      2.00000
     20      -9.7018      2.00000
     21      -9.6979      2.00000
     22      -9.6942      2.00000
     23      -9.6417      2.00000
     24      -9.6333      2.00000
     25      -9.6174      2.00000
     26      -9.6137      2.00000
     27      -9.5886      2.00000
     28      -9.5838      2.00000
     29      -9.5549      2.00000
     30      -9.5501      2.00000
     31      -9.5391      2.00000
     32      -9.5380      2.00000
     33      -8.2023      2.00000
     34      -8.1999      2.00000
     35      -8.0076      2.00000
     36      -8.0051      2.00000
     37      -7.7662      2.00000
     38      -7.7653      2.00000
     39      -7.5905      2.00000
     40      -7.5848      2.00000
     41      -1.7870      2.00000
     42      -1.7801      2.00000
     43      -1.6779      2.00000
     44      -1.6770      2.00000
     45      -1.6357      2.00000
     46      -1.6339      2.00000
     47      -1.5403      2.00000
     48      -1.5392      2.00000
     49      -1.4943      2.00000
     50      -1.4930      2.00000
     51      -1.4618      2.00000
     52      -1.4576      2.00000
     53      -1.3810      2.00000
     54      -1.3798      2.00000
     55      -1.2902      2.00000
     56      -1.2889      2.00000
     57      -1.2725      2.00000
     58      -1.2709      2.00000
     59      -1.1453      2.00000
     60      -1.1366      2.00000
     61      -1.0515      2.00000
     62      -1.0445      2.00000
     63      -1.0132      2.00000
     64      -1.0075      2.00000
     65      -1.0003      2.00000
     66      -0.9899      2.00000
     67      -0.9704      2.00000
     68      -0.9655      2.00000
     69      -0.9212      2.00000
     70      -0.9114      2.00000
     71      -0.8877      2.00000
     72      -0.8844      2.00000
     73      -0.8717      2.00000
     74      -0.8700      2.00000
     75      -0.8454      2.00000
     76      -0.8441      2.00000
     77      -0.8323      2.00000
     78      -0.8263      2.00000
     79      -0.7476      2.00000
     80      -0.7449      2.00000
     81      -0.6979      2.00000
     82      -0.6952      2.00000
     83      -0.6278      2.00000
     84      -0.6229      2.00000
     85      -0.5950      2.00000
     86      -0.5873      2.00000
     87      -0.5523      2.00000
     88      -0.5520      2.00000
     89      -0.5251      2.00000
     90      -0.5183      2.00000
     91      -0.4822      2.00000
     92      -0.4794      2.00000
     93      -0.4109      2.00000
     94      -0.4077      2.00000
     95      -0.3866      2.00000
     96      -0.3821      2.00000
     97      -0.3637      2.00000
     98      -0.3598      2.00000
     99      -0.3169      2.00000
    100      -0.3122      2.00000
    101      -0.3101      2.00000
    102      -0.3048      2.00000
    103      -0.2608      2.00000
    104      -0.2548      2.00000
    105      -0.2123      2.00000
    106      -0.2085      2.00000
    107      -0.1895      2.00000
    108      -0.1859      2.00000
    109      -0.1475      2.00000
    110      -0.1467      2.00000
    111      -0.0866      2.00000
    112      -0.0845      2.00000
    113       0.0335      2.00000
    114       0.0370      2.00000
    115       0.1457      2.00000
    116       0.1459      2.00000
    117       0.2310      2.00000
    118       0.2355      2.00000
    119       0.2818      2.00000
    120       0.2850      2.00000
    121       0.3648      2.00000
    122       0.3667      2.00000
    123       0.3712      2.00000
    124       0.3724      2.00000
    125       0.4210      2.00000
    126       0.4231      2.00000
    127       0.4549      2.00000
    128       0.4573      2.00000
    129       0.5098      2.00000
    130       0.5159      2.00000
    131       0.5513      2.00000
    132       0.5531      2.00000
    133       0.5685      2.00000
    134       0.5800      2.00000
    135       0.6075      2.00000
    136       0.6081      2.00000
    137       0.6652      2.00000
    138       0.6701      2.00000
    139       0.6947      2.00000
    140       0.7064      2.00000
    141       0.7377      2.00000
    142       0.7419      2.00000
    143       0.8794      2.00000
    144       0.8800      2.00000
    145       0.9047      2.00000
    146       0.9135      2.00000
    147       1.0289      2.00000
    148       1.0352      2.00000
    149       1.0490      2.00000
    150       1.0549      2.00000
    151       1.0721      2.00000
    152       1.0749      2.00000
    153       1.0873      2.00000
    154       1.0885      2.00000
    155       1.1736      2.00000
    156       1.1746      2.00000
    157       1.2001      2.00000
    158       1.2007      2.00000
    159       1.2640      2.00000
    160       1.2670      2.00000
    161       1.4692      2.00000
    162       1.4737      2.00000
    163       1.5704      2.00000
    164       1.5744      2.00000
    165       1.5804      2.00000
    166       1.5831      2.00000
    167       1.6885      2.00000
    168       1.6928      2.00000
    169       1.7698      2.00000
    170       1.7715      2.00000
    171       1.8307      2.00000
    172       1.8332      2.00000
    173       1.8635      2.00000
    174       1.8646      2.00000
    175       2.0182      2.00000
    176       2.0189      2.00000
    177       3.7038      0.00000
    178       3.7096      0.00000
    179       3.9101      0.00000
    180       3.9136      0.00000
    181       4.0410      0.00000
    182       4.0436      0.00000
    183       4.2275      0.00000
    184       4.2293      0.00000
    185       4.3115      0.00000
    186       4.3167      0.00000
    187       4.4219      0.00000
    188       4.4229      0.00000
    189       4.6110      0.00000
    190       4.6150      0.00000
    191       4.7005      0.00000
    192       4.7038      0.00000
    193       4.8151      0.00000
    194       4.8231      0.00000
    195       4.8464      0.00000
    196       4.8487      0.00000
    197       4.9473      0.00000
    198       4.9504      0.00000
    199       5.0275      0.00000
    200       5.0305      0.00000
    201       5.5332      0.00000
    202       5.5342      0.00000
    203       5.5639      0.00000
    204       5.5645      0.00000
    205       5.6011      0.00000
    206       5.6206      0.00000
    207       5.7977      0.00000
    208       5.7991      0.00000
    209       7.2417      0.00000
    210       7.2447      0.00000
    211       7.5061      0.00000


--------------------------------------------------------------------------------------------------------


 soft charge-density along one line, spin component           1
         0         1         2         3         4         5         6         7         8         9
 total charge-density along one line
 
 pseudopotential strength for first ion, spin component:           1
 -6.528  -0.000  -0.004  -0.000  -0.000  -6.660  -0.000  -0.004
 -0.000  -6.521  -0.001   0.003  -0.000  -0.000  -6.653  -0.001
 -0.004  -0.001  -6.515  -0.001   0.000  -0.004  -0.001  -6.647
 -0.000   0.003  -0.001  -6.521   0.000  -0.000   0.003  -0.001
 -0.000  -0.000   0.000   0.000  -6.524  -0.000  -0.000   0.000
 -6.660  -0.000  -0.004  -0.000  -0.000  -6.761  -0.000  -0.004
 -0.000  -6.653  -0.001   0.003  -0.000  -0.000  -6.754  -0.001
 -0.004  -0.001  -6.647  -0.001   0.000  -0.004  -0.001  -6.749
 -0.000   0.003  -0.001  -6.653   0.000  -0.000   0.002  -0.001
 -0.000  -0.000   0.000   0.000  -6.655  -0.000  -0.000   0.000
  0.000  -0.000   0.002  -0.000   0.000   0.000  -0.000   0.002
  0.001  -0.000   0.003  -0.000   0.000   0.001  -0.000   0.003
  0.005   0.000   0.004  -0.000   0.006   0.005   0.000   0.004
 -0.000  -0.005   0.000   0.005   0.000  -0.000  -0.005   0.000
 -0.005  -0.000  -0.004   0.000   0.006  -0.005  -0.000  -0.004
  0.007   0.000   0.005  -0.000   0.008   0.007   0.000   0.004
 -0.000  -0.007   0.000   0.007   0.000  -0.000  -0.006   0.000
 -0.007  -0.000  -0.005   0.000   0.008  -0.007  -0.000  -0.004
 total augmentation occupancy for first ion, spin component:           1
  2.340   0.017  -0.280   0.017  -0.001  -0.333  -0.014   0.270  -0.014   0.001  -0.204   0.034  -0.055  -0.000   0.055   0.005
  0.017   2.425  -0.163  -0.032  -0.044  -0.014  -0.430   0.145   0.021   0.037   0.027  -0.005  -0.021   0.085   0.002   0.001
 -0.280  -0.163   4.379  -0.166   0.001   0.270   0.145  -2.254   0.148  -0.001  -0.448   0.065   0.156   0.001  -0.156  -0.006
  0.017  -0.032  -0.166   2.425   0.042  -0.014   0.021   0.148  -0.429  -0.034   0.032  -0.005  -0.002  -0.085   0.021   0.000
 -0.001  -0.044   0.001   0.042   3.565   0.001   0.037  -0.001  -0.034  -1.440   0.001  -0.000   0.189   0.024   0.189  -0.008
 -0.333  -0.014   0.270  -0.014   0.001   0.310   0.012  -0.261   0.012  -0.001   0.188  -0.042   0.041   0.000  -0.040  -0.003
 -0.014  -0.430   0.145   0.021   0.037   0.012   0.418  -0.129  -0.012  -0.030  -0.024   0.005   0.019  -0.069  -0.001  -0.001
  0.270   0.145  -2.254   0.148  -0.001  -0.261  -0.129   2.120  -0.133   0.001   0.401  -0.074  -0.140  -0.001   0.140   0.008
 -0.014   0.021   0.148  -0.429  -0.034   0.012  -0.012  -0.133   0.418   0.028  -0.028   0.006   0.002   0.069  -0.019  -0.000
  0.001   0.037  -0.001  -0.034  -1.440  -0.001  -0.030   0.001   0.028   1.311  -0.001   0.000  -0.173  -0.021  -0.173   0.011
 -0.204   0.027  -0.448   0.032   0.001   0.188  -0.024   0.401  -0.028  -0.001   1.495  -0.316   0.045  -0.001  -0.045  -0.004
  0.034  -0.005   0.065  -0.005  -0.000  -0.042   0.005  -0.074   0.006   0.000  -0.316   0.072  -0.011   0.000   0.011   0.001
 -0.055  -0.021   0.156  -0.002   0.189   0.041   0.019  -0.140   0.002  -0.173   0.045  -0.011   0.080  -0.001   0.014  -0.005
 -0.000   0.085   0.001  -0.085   0.024   0.000  -0.069  -0.001   0.069  -0.021  -0.001   0.000  -0.001   0.121  -0.002   0.000
  0.055   0.002  -0.156   0.021   0.189  -0.040  -0.001   0.140  -0.019  -0.173  -0.045   0.011   0.014  -0.002   0.080  -0.001
  0.005   0.001  -0.006   0.000  -0.008  -0.003  -0.001   0.008  -0.000   0.011  -0.004   0.001  -0.005   0.000  -0.001   0.000
  0.000  -0.007  -0.000   0.007  -0.001  -0.000   0.005   0.000  -0.005   0.001   0.000  -0.000   0.000  -0.008   0.000  -0.000
 -0.005  -0.000   0.006  -0.001  -0.008   0.003   0.000  -0.008   0.001   0.011   0.004  -0.001  -0.001   0.000  -0.005   0.000


------------------------ aborting loop because EDIFF is reached ----------------------------------------


 


 total charge     
 
# of ion       s       p       d       tot
------------------------------------------
    1        0.255   0.160   9.311   9.725
    2        0.241   0.151   9.320   9.712
    3        0.253   0.158   9.312   9.723
    4        0.238   0.146   9.323   9.708
    5        0.241   0.151   9.320   9.712
    6        0.241   0.151   9.320   9.712
    7        0.238   0.147   9.323   9.708
    8        0.241   0.151   9.320   9.712
    9        1.834   1.401   0.138   3.373
   10        1.835   1.397   0.139   3.371
   11        1.834   1.401   0.138   3.373
   12        1.833   1.400   0.135   3.368
   13        1.835   1.397   0.139   3.370
   14        1.833   1.400   0.135   3.368
   15        1.834   1.400   0.138   3.373
   16        1.834   1.400   0.138   3.373
   17        1.518   2.742   0.013   4.273
   18        1.518   2.743   0.012   4.273
   19        1.518   2.742   0.012   4.272
   20        1.514   2.742   0.017   4.273
   21        1.514   2.742   0.017   4.273
   22        1.518   2.742   0.012   4.272
   23        1.518   2.742   0.011   4.272
   24        1.518   2.742   0.011   4.272
   25        1.518   2.742   0.012   4.272
   26        1.514   2.742   0.017   4.274
   27        1.518   2.742   0.011   4.272
   28        1.518   2.742   0.011   4.272
   29        1.518   2.742   0.013   4.273
   30        1.518   2.743   0.012   4.273
   31        1.514   2.742   0.017   4.273
   32        1.518   2.742   0.012   4.272
   33        1.516   2.743   0.015   4.274
   34        1.517   2.745   0.013   4.275
   35        1.514   2.743   0.015   4.272
   36        1.514   2.743   0.015   4.272
   37        1.513   2.747   0.016   4.276
   38        1.513   2.747   0.016   4.276
   39        1.517   2.745   0.013   4.275
   40        1.516   2.743   0.015   4.274
   41        1.513   2.747   0.016   4.276
   42        1.513   2.747   0.016   4.276
   43        1.515   2.744   0.015   4.274
   44        1.517   2.746   0.012   4.275
   45        1.517   2.746   0.012   4.275
   46        1.515   2.744   0.015   4.274
   47        1.514   2.743   0.015   4.272
   48        1.514   2.743   0.015   4.272
--------------------------------------------------
tot         65.135 100.207  76.089 241.431
 


--------------------------------------------------------------------------------------------------------



  FREE ENERGIE OF THE ION-ELECTRON SYSTEM (eV)
  ---------------------------------------------------
  free  energy   TOTEN  =      -119.96441428 eV

  energy  without entropy=     -119.96441428  energy(sigma->0) =     -119.96441428
 


--------------------------------------------------------------------------------------------------------




--------------------------------------------------------------------------------------------------------


 writing wavefunctions
     LOOP+:  cpu time  116.4431: real time  116.5063
    4ORBIT:  cpu time    0.0000: real time    0.0000
 


 total charge     
 
# of ion       s       p       d       tot
------------------------------------------
    1        0.255   0.160   9.311   9.725
    2        0.241   0.151   9.320   9.712
    3        0.253   0.158   9.312   9.723
    4        0.238   0.146   9.323   9.708
    5        0.241   0.151   9.320   9.712
    6        0.241   0.151   9.320   9.712
    7        0.238   0.147   9.323   9.708
    8        0.241   0.151   9.320   9.712
    9        1.834   1.401   0.138   3.373
   10        1.835   1.397   0.139   3.371
   11        1.834   1.401   0.138   3.373
   12        1.833   1.400   0.135   3.368
   13        1.835   1.397   0.139   3.370
   14        1.833   1.400   0.135   3.368
   15        1.834   1.400   0.138   3.373
   16        1.834   1.400   0.138   3.373
   17        1.518   2.742   0.013   4.273
   18        1.518   2.743   0.012   4.273
   19        1.518   2.742   0.012   4.272
   20        1.514   2.742   0.017   4.273
   21        1.514   2.742   0.017   4.273
   22        1.518   2.742   0.012   4.272
   23        1.518   2.742   0.011   4.272
   24        1.518   2.742   0.011   4.272
   25        1.518   2.742   0.012   4.272
   26        1.514   2.742   0.017   4.274
   27        1.518   2.742   0.011   4.272
   28        1.518   2.742   0.011   4.272
   29        1.518   2.742   0.013   4.273
   30        1.518   2.743   0.012   4.273
   31        1.514   2.742   0.017   4.273
   32        1.518   2.742   0.012   4.272
   33        1.516   2.743   0.015   4.274
   34        1.517   2.745   0.013   4.275
   35        1.514   2.743   0.015   4.272
   36        1.514   2.743   0.015   4.272
   37        1.513   2.747   0.016   4.276
   38        1.513   2.747   0.016   4.276
   39        1.517   2.745   0.013   4.275
   40        1.516   2.743   0.015   4.274
   41        1.513   2.747   0.016   4.276
   42        1.513   2.747   0.016   4.276
   43        1.515   2.744   0.015   4.274
   44        1.517   2.746   0.012   4.275
   45        1.517   2.746   0.012   4.275
   46        1.515   2.744   0.015   4.274
   47        1.514   2.743   0.015   4.272
   48        1.514   2.743   0.015   4.272
--------------------------------------------------
tot         65.135 100.207  76.089 241.431
 
 BZINTS: Fermi energy:    2.053883;  352.000000 electrons
         Band energy:-0.758904E+03;  BLOECHL correction:   -0.000000

 total amount of memory used by VASP MPI-rank0  2782079. kBytes
=======================================================================

   base      :      30000. kBytes
   nonl-proj :     303764. kBytes
   fftplans  :      34720. kBytes
   grid      :      70000. kBytes
   one-center:        746. kBytes
   wavefun   :    2342849. kBytes
 
  
  
 General timing and accounting informations for this job:
 ========================================================
  
                  Total CPU time used (sec):      156.208
                            User time (sec):      151.587
                          System time (sec):        4.621
                         Elapsed time (sec):      158.431
  
                   Maximum memory used (kb):     4343140.
                   Average memory used (kb):           0.
  
                          Minor page faults:       421961
                          Major page faults:           19
                 Voluntary context switches:         2556
