 vasp.6.1.0 28Jan20 (build Jan 13 2021 21:44:47) complex                        
  
 executed on             LinuxIFC date 2021.09.12  19:37:17
 running on    9 total cores
 distrk:  each k-point on    1 cores,    9 groups
 distr:  one band on NCORE=   1 cores,    1 groups


--------------------------------------------------------------------------------------------------------


 INCAR:
 POTCAR:    PAW_PBE Ag 02Apr2005                  
 POTCAR:    PAW_PBE Bi 08Apr2002                  
 POTCAR:    PAW_PBE I 08Apr2002                   
 -----------------------------------------------------------------------------
|                                                                             |
|           W    W    AA    RRRRR   N    N  II  N    N   GGGG   !!!           |
|           W    W   A  A   R    R  NN   N  II  NN   N  G    G  !!!           |
|           W    W  A    A  R    R  N N  N  II  N N  N  G       !!!           |
|           W WW W  AAAAAA  RRRRR   N  N N  II  N  N N  G  GGG   !            |
|           WW  WW  A    A  R   R   N   NN  II  N   NN  G    G                |
|           W    W  A    A  R    R  N    N  II  N    N   GGGG   !!!           |
|                                                                             |
|     For optimal performance we recommend to set                             |
|       NCORE = 4 - approx SQRT(number of cores).                             |
|     NCORE specifies how many cores store one orbital (NPAR=cpu/NCORE).      |
|     This setting can greatly improve the performance of VASP for DFT.       |
|     The default, NCORE=1 might be grossly inefficient on modern             |
|     multi-core architectures or massively parallel machines. Do your        |
|     own testing!!!!                                                         |
|     Unfortunately you need to use the default for GW and RPA                |
|     calculations (for HF NCORE is supported but not extensively tested      |
|     yet).                                                                   |
|                                                                             |
 -----------------------------------------------------------------------------

 POTCAR:    PAW_PBE Ag 02Apr2005                  
   VRHFIN =Ag : s1 d10                                                                              
   LEXCH  = PE                                                                                      
   EATOM  =  1037.2675 eV,   76.2370 Ry                                                             
                                                                                                    
   TITEL  = PAW_PBE Ag 02Apr2005                                                                    
   LULTRA =        F    use ultrasoft PP ?                                                          
   IUNSCR =        1    unscreen: 0-lin 1-nonlin 2-no                                               
   RPACOR =    2.000    partial core radius                                                         
   POMASS =  107.868; ZVAL   =   11.000    mass and valenz                                          
   RCORE  =    2.500    outmost cutoff radius                                                       
   RWIGS  =    2.840; RWIGS  =    1.503    wigner-seitz radius (au A)                               
   ENMAX  =  249.844; ENMIN  =  187.383 eV                                                          
   ICORE  =        3    local potential                                                             
   LCOR   =        T    correct aug charges                                                         
   LPAW   =        T    paw PP                                                                      
   EAUG   =  412.496                                                                                
   DEXC   =    0.000                                                                                
   RMAX   =    2.560    core radius for proj-oper                                                   
   RAUG   =    1.300    factor for augmentation sphere                                              
   RDEP   =    2.576    radius for radial grids                                                     
   RDEPT  =    2.072    core radius for aug-charge                                                  
                                                                                                    
   Atomic configuration                                                                             
   12 entries                                                                                       
     n  l   j            E        occ.                                                              
     1  0  0.50    -25324.9161   2.0000                                                             
     2  0  0.50     -3728.5341   2.0000                                                             
     2  1  1.50     -3344.0404   6.0000                                                             
     3  0  0.50      -683.5581   2.0000                                                             
     3  1  1.50      -557.3225   6.0000                                                             
     3  2  2.50      -358.3853  10.0000                                                             
     4  0  0.50       -95.0341   2.0000                                                             
     4  1  1.50       -58.5511   6.0000                                                             
     4  2  2.50        -7.4440  10.0000                                                             
     5  0  0.50        -4.4045   1.0000                                                             
     5  1  0.50        -1.3606   0.0000                                                             
     4  3  2.50        -1.3606   0.0000                                                             
   Description                                                                                      
     l       E           TYP  RCUT    TYP  RCUT                                                     
     2     -7.4439781     23  2.400                                                                 
     2     -8.8045607     23  2.400                                                                 
     0     -4.4044681     23  2.400                                                                 
     0      1.9520038     23  2.400                                                                 
     1     -1.3605826     23  2.500                                                                 
     1     27.2116520     23  2.500                                                                 
     3     -4.0817478     23  2.400                                                                 
  local pseudopotential read in
  partial core-charges read in
  partial kinetic energy density read in
  atomic valenz-charges read in
  non local Contribution for L=           2  read in
    real space projection operators read in
  non local Contribution for L=           2  read in
    real space projection operators read in
  non local Contribution for L=           0  read in
    real space projection operators read in
  non local Contribution for L=           0  read in
    real space projection operators read in
  non local Contribution for L=           1  read in
    real space projection operators read in
  non local Contribution for L=           1  read in
    real space projection operators read in
    PAW grid and wavefunctions read in
 
   number of l-projection  operators is LMAX  =           6
   number of lm-projection operators is LMMAX =          18
 
 POTCAR:    PAW_PBE Bi 08Apr2002                  
   VRHFIN =Bi:                                                                                      
   LEXCH  = PE                                                                                      
   EATOM  =   150.8133 eV,   11.0845 Ry                                                             
                                                                                                    
   TITEL  = PAW_PBE Bi 08Apr2002                                                                    
   LULTRA =        F    use ultrasoft PP ?                                                          
   IUNSCR =        1    unscreen: 0-lin 1-nonlin 2-no                                               
   RPACOR =    2.200    partial core radius                                                         
   POMASS =  208.980; ZVAL   =    5.000    mass and valenz                                          
   RCORE  =    3.000    outmost cutoff radius                                                       
   RWIGS  =    3.090; RWIGS  =    1.635    wigner-seitz radius (au A)                               
   ENMAX  =  105.037; ENMIN  =   78.777 eV                                                          
   ICORE  =        3    local potential                                                             
   LCOR   =        T    correct aug charges                                                         
   LPAW   =        T    paw PP                                                                      
   EAUG   =  265.427                                                                                
   DEXC   =    0.000                                                                                
   RMAX   =    3.067    core radius for proj-oper                                                   
   RAUG   =    1.300    factor for augmentation sphere                                              
   RDEP   =    3.012    radius for radial grids                                                     
   RDEPT  =    2.604    core radius for aug-charge                                                  
                                                                                                    
   Atomic configuration                                                                             
   17 entries                                                                                       
     n  l   j            E        occ.                                                              
     1  0  0.50    -90639.6582   2.0000                                                             
     2  0  0.50    -16282.4667   2.0000                                                             
     2  1  1.50    -13922.8287   6.0000                                                             
     3  0  0.50     -3930.4763   2.0000                                                             
     3  1  1.50     -3256.7013   6.0000                                                             
     3  2  2.50     -2581.6169  10.0000                                                             
     4  0  0.50      -902.2614   2.0000                                                             
     4  1  1.50      -681.5915   6.0000                                                             
     4  2  2.50      -429.8249  10.0000                                                             
     4  3  3.50      -152.6004  14.0000                                                             
     5  0  0.50      -157.7156   2.0000                                                             
     5  1  1.50       -95.8054   6.0000                                                             
     5  2  2.50       -27.0806  10.0000                                                             
     6  0  0.50       -14.4732   2.0000                                                             
     6  1  1.50        -4.5702   3.0000                                                             
     6  2  2.50        -2.7212   0.0000                                                             
     5  3  2.50        -2.7212   0.0000                                                             
   Description                                                                                      
     l       E           TYP  RCUT    TYP  RCUT                                                     
     0    -14.4732299     23  3.000                                                                 
     0    -12.2452434     23  3.000                                                                 
     1     -4.5701666     23  3.000                                                                 
     1    -13.6058260     23  3.000                                                                 
     2     -2.7211652     23  3.000                                                                 
     3     -1.3605826      7  3.000                                                                 
  local pseudopotential read in
  partial core-charges read in
  partial kinetic energy density read in
  kinetic energy density of atom read in
  atomic valenz-charges read in
  non local Contribution for L=           0  read in
    real space projection operators read in
  non local Contribution for L=           0  read in
    real space projection operators read in
  non local Contribution for L=           1  read in
    real space projection operators read in
  non local Contribution for L=           1  read in
    real space projection operators read in
  non local Contribution for L=           2  read in
    real space projection operators read in
    PAW grid and wavefunctions read in
 
   number of l-projection  operators is LMAX  =           5
   number of lm-projection operators is LMMAX =          13
 
 POTCAR:    PAW_PBE I 08Apr2002                   
   VRHFIN =I : s2p5                                                                                 
   LEXCH  = PE                                                                                      
   EATOM  =   315.8678 eV,   23.2156 Ry                                                             
                                                                                                    
   TITEL  = PAW_PBE I 08Apr2002                                                                     
   LULTRA =        F    use ultrasoft PP ?                                                          
   IUNSCR =        1    unscreen: 0-lin 1-nonlin 2-no                                               
   RPACOR =    2.200    partial core radius                                                         
   POMASS =  126.904; ZVAL   =    7.000    mass and valenz                                          
   RCORE  =    2.300    outmost cutoff radius                                                       
   RWIGS  =    2.810; RWIGS  =    1.487    wigner-seitz radius (au A)                               
   ENMAX  =  175.647; ENMIN  =  131.735 eV                                                          
   ICORE  =        3    local potential                                                             
   LCOR   =        T    correct aug charges                                                         
   LPAW   =        T    paw PP                                                                      
   EAUG   =  370.139                                                                                
   DEXC   =    0.000                                                                                
   RMAX   =    2.359    core radius for proj-oper                                                   
   RAUG   =    1.300    factor for augmentation sphere                                              
   RDEP   =    2.392    radius for radial grids                                                     
   RDEPT  =    2.170    core radius for aug-charge                                                  
                                                                                                    
   Atomic configuration                                                                             
   13 entries                                                                                       
     n  l   j            E        occ.                                                              
     1  0  0.50    -32976.3739   2.0000                                                             
     2  0  0.50     -5094.5933   2.0000                                                             
     2  1  1.50     -4572.0131   6.0000                                                             
     3  0  0.50     -1028.2813   2.0000                                                             
     3  1  1.50      -859.0250   6.0000                                                             
     3  2  2.50      -605.7620  10.0000                                                             
     4  0  0.50      -180.5540   2.0000                                                             
     4  1  1.50      -127.5306   6.0000                                                             
     4  2  2.50       -50.2720  10.0000                                                             
     5  0  0.50       -17.4058   2.0000                                                             
     5  1  0.50        -7.0851   5.0000                                                             
     5  2  1.50        -7.0750   0.0000                                                             
     4  3  2.50        -7.0750   0.0000                                                             
   Description                                                                                      
     l       E           TYP  RCUT    TYP  RCUT                                                     
     0    -17.4058016     23  2.300                                                                 
     0    -18.7663842     23  2.300                                                                 
     1     -7.0850686     23  2.300                                                                 
     1     -4.2150896     23  2.300                                                                 
     2     -7.0750295     23  2.300                                                                 
     3     -1.3605826     23  2.300                                                                 
  local pseudopotential read in
  partial core-charges read in
  partial kinetic energy density read in
  atomic valenz-charges read in
  non local Contribution for L=           0  read in
    real space projection operators read in
  non local Contribution for L=           0  read in
    real space projection operators read in
  non local Contribution for L=           1  read in
    real space projection operators read in
  non local Contribution for L=           1  read in
    real space projection operators read in
  non local Contribution for L=           2  read in
    real space projection operators read in
    PAW grid and wavefunctions read in
 
   number of l-projection  operators is LMAX  =           5
   number of lm-projection operators is LMMAX =          13
 
 -----------------------------------------------------------------------------
|                                                                             |
|               ----> ADVICE to this user running VASP <----                  |
|                                                                             |
|     You have a (more or less) 'large supercell' and for larger cells it     |
|     might be more efficient to use real-space projection operators.         |
|     Therefore, try LREAL= Auto in the INCAR file.                           |
|     Mind: For very accurate calculation, you might also keep the            |
|     reciprocal projection scheme (i.e. LREAL=.FALSE.).                      |
|                                                                             |
 -----------------------------------------------------------------------------

  PAW_PBE Ag 02Apr2005                  :
 energy of atom  1       EATOM=-1037.2675
 kinetic energy error for atom=    0.0686 (will be added to EATOM!!)
  PAW_PBE Bi 08Apr2002                  :
 energy of atom  2       EATOM= -150.8133
 kinetic energy error for atom=    0.0004 (will be added to EATOM!!)
  PAW_PBE I 08Apr2002                   :
 energy of atom  3       EATOM= -315.8678
 kinetic energy error for atom=    0.0044 (will be added to EATOM!!)
 
 
 POSCAR: Generation Seed Number
  positions in direct lattice
  velocities in cartesian coordinates
 exchange correlation table for  LEXCH =        8
   RHO(1)=    0.500       N(1)  =     2000
   RHO(2)=  100.500       N(2)  =     4000
 


--------------------------------------------------------------------------------------------------------


 ion  position               nearest neighbor table
   1  0.977  0.005  0.010-  33 2.94  21 2.99  25 3.07  27 3.13  34 3.16  17 3.56
   2  0.751  0.776  0.025-  27 2.95  31 2.96  21 2.96  47 2.97
   3  0.995  0.247  0.253-  33 3.02  26 3.02  25 3.07  35 3.08  45 3.22  41 3.33
   4  0.023  0.488  0.495-  26 2.94  20 2.99  35 3.07  36 3.12  28 3.19  24 3.56
   5  0.496  0.003  0.498-  30 3.02  37 3.02  38 3.07  32 3.08  18 3.22  22 3.32
   6  0.523  0.760  0.256-  37 2.94  47 2.99  32 3.07  31 3.14  39 3.15  43 3.56
   7  0.477  0.244  0.741-  30 2.94  42 2.99  38 3.07  29 3.15  40 3.15  46 3.56
   8  0.250  0.475  0.724-  40 2.96  36 2.96  20 2.96  42 2.97
   9  0.246  0.249  0.999-  25 3.03  42 3.06  17 3.13  19 3.14  29 3.20  41 3.20
  10  0.500  0.503  0.998-  40 3.07  31 3.07  23 3.14  19 3.14  29 3.18  39 3.19
  11  0.000  0.748  0.752-  27 3.07  36 3.07  44 3.14  48 3.14  28 3.18  34 3.18
  12  0.250  0.000  0.250-  41 3.11  33 3.11  37 3.11  18 3.12  17 3.14  43 3.14
  13  0.746  0.001  0.751-  38 3.03  21 3.06  46 3.13  48 3.14  34 3.20  22 3.20
  14  0.754  0.502  0.252-  35 3.03  47 3.05  24 3.13  23 3.14  39 3.20  45 3.21
  15  0.750  0.249  0.500-  22 3.11  30 3.11  26 3.11  45 3.12  46 3.14  24 3.14
  16  0.253  0.748  0.499-  32 3.03  20 3.05  43 3.12  44 3.15  28 3.19  18 3.21
  17  0.257  0.003  0.003-   9 3.13  12 3.14   1 3.56
  18  0.243  0.000  0.495-  12 3.12  16 3.21   5 3.22
  19  0.254  0.496  0.010-  10 3.14   9 3.14
  20  0.257  0.508  0.493-   8 2.96   4 2.99  16 3.05
  21  0.742  0.006  0.992-   2 2.96   1 2.99  13 3.06
  22  0.758  0.005  0.500-  15 3.11  13 3.20   5 3.32
  23  0.747  0.491  0.005-  10 3.14  14 3.14
  24  0.743  0.497  0.497-  14 3.13  15 3.14   4 3.56
  25  0.008  0.244  0.011-   9 3.03   3 3.07   1 3.07
  26  0.994  0.259  0.490-   4 2.94   3 3.02  15 3.11
  27  0.980  0.759  0.993-   2 2.95  11 3.07   1 3.13
  28  0.002  0.738  0.502-  11 3.18   4 3.19  16 3.19
  29  0.498  0.252  0.987-   7 3.15  10 3.18   9 3.20
  30  0.506  0.240  0.511-   7 2.94   5 3.02  15 3.11
  31  0.521  0.743  0.009-   2 2.96  10 3.07   6 3.14
  32  0.492  0.761  0.495-  16 3.03   6 3.07   5 3.08
  33  0.006  0.010  0.240-   1 2.94   3 3.02  12 3.11
  34  0.998  0.998  0.763-   1 3.16  11 3.18  13 3.20
  35  0.992  0.489  0.256-  14 3.03   4 3.07   3 3.08
  36  0.020  0.507  0.740-   8 2.96  11 3.07   4 3.12
  37  0.495  0.989  0.260-   6 2.94   5 3.02  12 3.11
  38  0.508  0.005  0.739-  13 3.03   7 3.07   5 3.07
  39  0.503  0.513  0.248-   6 3.15  10 3.19  14 3.20
  40  0.480  0.492  0.757-   8 2.96  10 3.07   7 3.15
  41  0.258  0.245  0.250-  12 3.11   9 3.20   3 3.33
  42  0.242  0.244  0.758-   8 2.97   7 2.99   9 3.06
  43  0.243  0.753  0.253-  16 3.12  12 3.14   6 3.56
  44  0.247  0.759  0.746-  11 3.14  16 3.15
  45  0.742  0.250  0.255-  15 3.12  14 3.21   3 3.22
  46  0.757  0.247  0.747-  13 3.13  15 3.14   7 3.56
  47  0.758  0.742  0.256-   2 2.97   6 2.99  14 3.05
  48  0.753  0.754  0.741-  11 3.14  13 3.14
 
 -----------------------------------------------------------------------------
|                                                                             |
|           W    W    AA    RRRRR   N    N  II  N    N   GGGG   !!!           |
|           W    W   A  A   R    R  NN   N  II  NN   N  G    G  !!!           |
|           W    W  A    A  R    R  N N  N  II  N N  N  G       !!!           |
|           W WW W  AAAAAA  RRRRR   N  N N  II  N  N N  G  GGG   !            |
|           WW  WW  A    A  R   R   N   NN  II  N   NN  G    G                |
|           W    W  A    A  R    R  N    N  II  N    N   GGGG   !!!           |
|                                                                             |
|     The determination of the symmetry of your systems shows a strong        |
|     dependence on the tolerance parameter SYMPREC. This is often the        |
|     result of "noise" in the structural parameters (lattice vectors         |
|     and/or ionic positions). Set NWRITE=3 for more details.                 |
|                                                                             |
 -----------------------------------------------------------------------------

  LATTYP: Found a triclinic cell.
 ALAT       =    12.7095676964
 B/A-ratio  =     1.4141336219
 C/A-ratio  =     0.9999013084
 COS(alpha) =     0.0000122960
 COS(beta)  =     0.0001680268
 COS(gamma) =     0.7070287979
  
  Lattice vectors:
  
 A1 = ( -12.7095676007,  -0.0010107731,  -0.0011877914)
 A2 = ( -12.7084585135,  12.7092400130,  -0.0000298986)
 A3 = (  -0.0009476034,  -0.0007564607, -12.7083133107)


Analysis of symmetry for initial positions (statically):
=====================================================================
 Subroutine PRICEL returns:
 Original cell was already a primitive cell.
 

 Routine SETGRP: Setting up the symmetry group for a 
 triclinic supercell.


 Subroutine GETGRP returns: Found  1 space group operations
 (whereof  1 operations were pure point group operations)
 out of a pool of  2 trial point group operations.


The static configuration has the point symmetry C_1 .


Analysis of symmetry for dynamics (positions and initial velocities):
=====================================================================
 Subroutine PRICEL returns:
 Original cell was already a primitive cell.
 

 Routine SETGRP: Setting up the symmetry group for a 
 triclinic supercell.


 Subroutine GETGRP returns: Found  1 space group operations
 (whereof  1 operations were pure point group operations)
 out of a pool of  2 trial point group operations.


The dynamic configuration has the point symmetry C_1 .


 Subroutine INISYM returns: Found  1 space group operations
 (whereof  1 operations are pure point group operations),
 and found     1 'primitive' translations


----------------------------------------------------------------------------------------

                                     Primitive cell                                     

  volume of cell :    2052.9237

  direct lattice vectors                    reciprocal lattice vectors
    12.709567601  0.001010773  0.001187791     0.078680884 -0.000006865 -0.000005866
     0.001109087 12.710250786  0.001157893    -0.000006257  0.078676655 -0.000004683
     0.000947603  0.000756461 12.708313311    -0.000007353 -0.000007168  0.078688650

  length of vectors
    12.709567696 12.710250887 12.708313369     0.078680885  0.078676655  0.078688650

  position of ions in fractional coordinates (direct lattice)
     0.976653370  0.004816488  0.010155700
     0.750693437  0.775822979  0.024729318
     0.995492429  0.246555793  0.252730415
     0.023251635  0.488286870  0.495497104
     0.496037660  0.002700559  0.498024229
     0.523261396  0.759666515  0.255585717
     0.476763831  0.244475818  0.740595644
     0.250031010  0.475303296  0.724275651
     0.246447197  0.248782145  0.998917725
     0.500238318  0.502591482  0.997544801
     0.000066666  0.748018842  0.751811594
     0.250225848  0.000246920  0.249970187
     0.746364990  0.000985200  0.751230507
     0.753720287  0.501685021  0.251678333
     0.749845558  0.249372049  0.500368289
     0.253499517  0.748406968  0.498767123
     0.256748595  0.002907730  0.003203044
     0.242769285  0.000422862  0.495162674
     0.253584472  0.495602691  0.009592101
     0.257480124  0.508226973  0.493467949
     0.742401654  0.006401158  0.991763653
     0.757525656  0.004926035  0.499841999
     0.746753081  0.490527516  0.004619245
     0.743457393  0.496666447  0.497322824
     0.008142906  0.244461336  0.011335580
     0.994338477  0.258949463  0.490109688
     0.980323716  0.758835526  0.992541858
     0.002492668  0.738217696  0.501800253
     0.497680787  0.252255606  0.987204029
     0.505532296  0.239767320  0.510773070
     0.520671263  0.742929226  0.008806744
     0.491884040  0.760645751  0.495195763
     0.005823067  0.009575818  0.239841711
     0.997639145  0.998134647  0.762616505
     0.991976835  0.488965399  0.256180915
     0.019899077  0.507330071  0.740157279
     0.494642585  0.989223084  0.260416861
     0.508032387  0.005020588  0.739447107
     0.502609625  0.513019891  0.247968689
     0.479859517  0.491524943  0.757159430
     0.257774357  0.244753428  0.250193004
     0.242424883  0.244496833  0.758327042
     0.243353558  0.753005635  0.253247790
     0.246500616  0.758902714  0.745952784
     0.742399265  0.249613514  0.255157033
     0.756783650  0.246739523  0.747102384
     0.757903100  0.741771147  0.255792964
     0.753432523  0.754105140  0.740943070

  ion indices of the primitive-cell ions
   primitive index   ion index
                 1           1
                 2           2
                 3           3
                 4           4
                 5           5
                 6           6
                 7           7
                 8           8
                 9           9
                10          10
                11          11
                12          12
                13          13
                14          14
                15          15
                16          16
                17          17
                18          18
                19          19
                20          20
                21          21
                22          22
                23          23
                24          24
                25          25
                26          26
                27          27
                28          28
                29          29
                30          30
                31          31
                32          32
                33          33
                34          34
                35          35
                36          36
                37          37
                38          38
                39          39
                40          40
                41          41
                42          42
                43          43
                44          44
                45          45
                46          46
                47          47
                48          48

----------------------------------------------------------------------------------------

 
 
 KPOINTS: agbii                                   

Automatic generation of k-mesh.
Space group operators:
 irot       det(A)        alpha          n_x          n_y          n_z        tau_x        tau_y        tau_z
    1     1.000000     0.000000     1.000000     0.000000     0.000000     0.000000     0.000000     0.000000
 TETIRR: Found    192 inequivalent tetrahedra from      384
 
 Subroutine IBZKPT returns following result:
 ===========================================
 
 Found     36 irreducible k-points:
 
 Following reciprocal coordinates:
            Coordinates               Weight
  0.000000  0.000000  0.000000      1.000000
  0.250000 -0.000000  0.000000      2.000000
  0.500000 -0.000000  0.000000      1.000000
  0.000000  0.250000  0.000000      2.000000
  0.250000  0.250000  0.000000      2.000000
  0.500000  0.250000  0.000000      2.000000
 -0.250000  0.250000 -0.000000      2.000000
  0.000000  0.500000  0.000000      1.000000
  0.250000  0.500000 -0.000000      2.000000
  0.500000  0.500000 -0.000000      1.000000
  0.000000 -0.000000  0.250000      2.000000
  0.250000 -0.000000  0.250000      2.000000
  0.500000 -0.000000  0.250000      2.000000
 -0.250000  0.000000  0.250000      2.000000
  0.000000  0.250000  0.250000      2.000000
  0.250000  0.250000  0.250000      2.000000
  0.500000  0.250000  0.250000      2.000000
 -0.250000  0.250000  0.250000      2.000000
  0.000000  0.500000  0.250000      2.000000
  0.250000  0.500000  0.250000      2.000000
  0.500000  0.500000  0.250000      2.000000
 -0.250000  0.500000  0.250000      2.000000
 -0.000000 -0.250000  0.250000      2.000000
  0.250000 -0.250000  0.250000      2.000000
  0.500000 -0.250000  0.250000      2.000000
 -0.250000 -0.250000  0.250000      2.000000
  0.000000 -0.000000  0.500000      1.000000
  0.250000 -0.000000  0.500000      2.000000
  0.500000 -0.000000  0.500000      1.000000
  0.000000  0.250000  0.500000      2.000000
  0.250000  0.250000  0.500000      2.000000
  0.500000  0.250000  0.500000      2.000000
 -0.250000  0.250000  0.500000      2.000000
  0.000000  0.500000  0.500000      1.000000
  0.250000  0.500000  0.500000      2.000000
  0.500000  0.500000  0.500000      1.000000
 
 Following cartesian coordinates:
            Coordinates               Weight
  0.000000  0.000000  0.000000      1.000000
  0.019670 -0.000002 -0.000001      2.000000
  0.039340 -0.000003 -0.000003      1.000000
 -0.000002  0.019669 -0.000001      2.000000
  0.019669  0.019667 -0.000003      2.000000
  0.039339  0.019666 -0.000004      2.000000
 -0.019672  0.019671  0.000000      2.000000
 -0.000003  0.039338 -0.000002      1.000000
  0.019667  0.039337 -0.000004      2.000000
  0.039337  0.039335 -0.000005      1.000000
 -0.000002 -0.000002  0.019672      2.000000
  0.019668 -0.000004  0.019671      2.000000
  0.039339 -0.000005  0.019669      2.000000
 -0.019672 -0.000000  0.019674      2.000000
 -0.000003  0.019667  0.019671      2.000000
  0.019667  0.019666  0.019670      2.000000
  0.039337  0.019664  0.019668      2.000000
 -0.019674  0.019669  0.019672      2.000000
 -0.000005  0.039337  0.019670      2.000000
  0.019665  0.039335  0.019668      2.000000
  0.039335  0.039333  0.019667      2.000000
 -0.019675  0.039338  0.019671      2.000000
 -0.000000 -0.019671  0.019673      2.000000
  0.019670 -0.019673  0.019672      2.000000
  0.039340 -0.019674  0.019670      2.000000
 -0.019670 -0.019669  0.019675      2.000000
 -0.000004 -0.000004  0.039344      1.000000
  0.019667 -0.000005  0.039343      2.000000
  0.039337 -0.000007  0.039341      1.000000
 -0.000005  0.019666  0.039343      2.000000
  0.019665  0.019664  0.039342      2.000000
  0.039335  0.019662  0.039340      2.000000
 -0.019675  0.019667  0.039345      2.000000
 -0.000007  0.039335  0.039342      1.000000
  0.019663  0.039333  0.039341      2.000000
  0.039334  0.039331  0.039339      1.000000
 


--------------------------------------------------------------------------------------------------------




 Dimension of arrays:
   k-points           NKPTS =     36   k-points in BZ     NKDIM =     36   number of bands    NBANDS=    211
   number of dos      NEDOS =   3000   number of ions     NIONS =     48
   non local maximal  LDIM  =      6   non local SUM 2l+1 LMDIM =     18
   total plane-waves  NPLWV = 125000
   max r-space proj   IRMAX =      1   max aug-charges    IRDMAX=   5999
   dimension x,y,z NGX =    50 NGY =   50 NGZ =   50
   dimension x,y,z NGXF=   100 NGYF=  100 NGZF=  100
   support grid    NGXF=   100 NGYF=  100 NGZF=  100
   ions per type =               8   8  32
   NGX,Y,Z   is equivalent  to a cutoff of   6.54,  6.54,  6.54 a.u.
   NGXF,Y,Z  is equivalent  to a cutoff of  13.08, 13.08, 13.08 a.u.

 SYSTEM =  unknown system                          
 POSCAR =  Generation Seed Number                  

 Startparameter for this run:
   NWRITE =      2    write-flag & timer
   PREC   = normal    normal or accurate (medium, high low for compatibility)
   ISTART =      1    job   : 0-new  1-cont  2-samecut
   ICHARG =      1    charge: 1-file 2-atom 10-const
   ISPIN  =      1    spin polarized calculation?
   LNONCOLLINEAR =      F non collinear calculations
   LSORBIT =      F    spin-orbit coupling
   INIWAV =      1    electr: 0-lowe 1-rand  2-diag
   LASPH  =      F    aspherical Exc in radial PAW
   METAGGA=      F    non-selfconsistent MetaGGA calc.

 Electronic Relaxation 1
   ENCUT  =  250.0 eV  18.37 Ry    4.29 a.u.  16.39 16.39 16.38*2*pi/ulx,y,z
   ENINI  =  250.0     initial cutoff
   ENAUG  =  412.5 eV  augmentation charge cutoff
   NELM   =     60;   NELMIN=  2; NELMDL=  0     # of ELM steps 
   EDIFF  = 0.1E-05   stopping-criterion for ELM
   LREAL  =      F    real-space projection
   NLSPLINE    = F    spline interpolate recip. space projectors
   LCOMPAT=      F    compatible to vasp.4.4
   GGA_COMPAT  = T    GGA compatible to vasp.4.4-vasp.4.6
   LMAXPAW     = -100 max onsite density
   LMAXMIX     =    4 max onsite mixed and CHGCAR
   VOSKOWN=      0    Vosko Wilk Nusair interpolation
   ROPT   =    0.00000   0.00000   0.00000
 Ionic relaxation
   EDIFFG = -.1E-01   stopping-criterion for IOM
   NSW    =      0    number of steps for IOM
   NBLOCK =      1;   KBLOCK =      1    inner block; outer block 
   IBRION =     -1    ionic relax: 0-MD 1-quasi-New 2-CG
   NFREE  =      0    steps in history (QN), initial steepest desc. (CG)
   ISIF   =     -1    stress and relaxation
   IWAVPR =     10    prediction:  0-non 1-charg 2-wave 3-comb
   ISYM   =      2    0-nonsym 1-usesym 2-fastsym
   LCORR  =      T    Harris-Foulkes like correction to forces

   POTIM  = 0.5000    time-step for ionic-motion
   TEIN   =    0.0    initial temperature
   TEBEG  =    0.0;   TEEND  =   0.0 temperature during run
   SMASS  =  -3.00    Nose mass-parameter (am)
   estimated Nose-frequenzy (Omega)   =  0.10E-29 period in steps = 0.13E+47 mass=  -0.369E-26a.u.
   SCALEE = 1.0000    scale energy and forces
   NPACO  =    256;   APACO  = 16.0  distance and # of slots for P.C.
   PSTRESS=    0.0 pullay stress

  Mass of Ions in am
   POMASS = 107.87208.98126.90
  Ionic Valenz
   ZVAL   =  11.00  5.00  7.00
  Atomic Wigner-Seitz radii
   RWIGS  =  -1.00 -1.00 -1.00
  virtual crystal weights 
   VCA    =   1.00  1.00  1.00
   NELECT =     352.0000    total number of electrons
   NUPDOWN=      -1.0000    fix difference up-down

 DOS related values:
   EMIN   =  10.00;   EMAX   =-10.00  energy-range for DOS
   EFERMI =   0.00
   ISMEAR =    -5;   SIGMA  =   0.20  broadening in eV -4-tet -1-fermi 0-gaus

 Electronic relaxation 2 (details)
   IALGO  =     38    algorithm
   LDIAG  =      T    sub-space diagonalisation (order eigenvalues)
   LSUBROT=      F    optimize rotation matrix (better conditioning)
   TURBO    =      0    0=normal 1=particle mesh
   IRESTART =      0    0=no restart 2=restart with 2 vectors
   NREBOOT  =      0    no. of reboots
   NMIN     =      0    reboot dimension
   EREF     =   0.00    reference energy to select bands
   IMIX   =      4    mixing-type and parameters
     AMIX     =   0.40;   BMIX     =  1.00
     AMIX_MAG =   1.60;   BMIX_MAG =  1.00
     AMIN     =   0.10
     WC   =   100.;   INIMIX=   1;  MIXPRE=   1;  MAXMIX= -45

 Intra band minimization:
   WEIMIN = 0.0000     energy-eigenvalue tresh-hold
   EBREAK =  0.12E-08  absolut break condition
   DEPER  =   0.30     relativ break condition  

   TIME   =   0.40     timestep for ELM

  volume/ion in A,a.u.               =      42.77       288.62
  Fermi-wavevector in a.u.,A,eV,Ry     =   0.909490  1.718688 11.254369  0.827173
  Thomas-Fermi vector in A             =   2.033541
 
 Write flags
   LWAVE        =      T    write WAVECAR
   LDOWNSAMPLE  =      F    k-point downsampling of WAVECAR
   LCHARG       =      T    write CHGCAR
   LVTOT        =      F    write LOCPOT, total local potential
   LVHAR        =      F    write LOCPOT, Hartree potential only
   LELF         =      F    write electronic localiz. function (ELF)
   LORBIT       =     10    0 simple, 1 ext, 2 COOP (PROOUT), +10 PAW based schemes


 Dipole corrections
   LMONO  =      F    monopole corrections only (constant potential shift)
   LDIPOL =      F    correct potential (dipole corrections)
   IDIPOL =      0    1-x, 2-y, 3-z, 4-all directions 
   EPSILON=  1.0000000 bulk dielectric constant

 Exchange correlation treatment:
   GGA     =    --    GGA type
   LEXCH   =     8    internal setting for exchange type
   VOSKOWN=      0    Vosko Wilk Nusair interpolation
   LHFCALC =     F    Hartree Fock is set to
   LHFONE  =     F    Hartree Fock one center treatment
   AEXX    =    0.0000 exact exchange contribution

 Linear response parameters
   LEPSILON=     F    determine dielectric tensor
   LRPA    =     F    only Hartree local field effects (RPA)
   LNABLA  =     F    use nabla operator in PAW spheres
   LVEL    =     F    velocity operator in full k-point grid
   LINTERFAST=   F  fast interpolation
   KINTER  =     0    interpolate to denser k-point grid
   CSHIFT  =0.1000    complex shift for real part using Kramers Kronig
   OMEGAMAX=  -1.0    maximum frequency
   DEG_THRESHOLD= 0.2000000E-02 threshold for treating states as degnerate
   RTIME   =   -0.100 relaxation time in fs
  (WPLASMAI=    0.000 imaginary part of plasma frequency in eV, 0.658/RTIME)
   DFIELD  = 0.0000000 0.0000000 0.0000000 field for delta impulse in time
 
 Orbital magnetization related:
   ORBITALMAG=     F  switch on orbital magnetization
   LCHIMAG   =     F  perturbation theory with respect to B field
   DQ        =  0.001000  dq finite difference perturbation B field
   LLRAUG    =     F  two centre corrections for induced B field



--------------------------------------------------------------------------------------------------------


 Static calculation
 charge density and potential will be updated during run
 non-spin polarized calculation
 Variant of blocked Davidson
 Davidson routine will perform the subspace rotation
 perform sub-space diagonalisation
    after iterative eigenvector-optimisation
 modified Broyden-mixing scheme, WC =      100.0
 initial mixing is a Kerker type mixing with AMIX =  0.4000 and BMIX =      1.0000
 Hartree-type preconditioning will be used
 using additional bands           35
 reciprocal scheme for non local part
 use partial core corrections
 calculate Harris-corrections to forces 
   (improved forces if not selfconsistent)
 use gradient corrections 
 use of overlap-Matrix (Vanderbilt PP)
 Fermi weights with tetrahedron method with Bloechl corrections


--------------------------------------------------------------------------------------------------------


  energy-cutoff  :      250.00
  volume of cell :     2052.92
      direct lattice vectors                 reciprocal lattice vectors
    12.709567601  0.001010773  0.001187791     0.078680884 -0.000006865 -0.000005866
     0.001109087 12.710250786  0.001157893    -0.000006257  0.078676655 -0.000004683
     0.000947603  0.000756461 12.708313311    -0.000007353 -0.000007168  0.078688650

  length of vectors
    12.709567696 12.710250887 12.708313369     0.078680885  0.078676655  0.078688650


 
 old parameters found on file WAVECAR:
  energy-cutoff  :      250.00
  volume of cell :     2052.92
      direct lattice vectors                 reciprocal lattice vectors
    12.709567601  0.001010773  0.001187791     0.078680884 -0.000006865 -0.000005866
     0.001109087 12.710250786  0.001157893    -0.000006257  0.078676655 -0.000004683
     0.000947603  0.000756461 12.708313311    -0.000007353 -0.000007168  0.078688650

  length of vectors

 
 k-points in units of 2pi/SCALE and weight: agbii                                   
   0.00000000  0.00000000  0.00000000       0.016
   0.01967022 -0.00000172 -0.00000147       0.031
   0.03934044 -0.00000343 -0.00000293       0.016
  -0.00000156  0.01966916 -0.00000117       0.031
   0.01966866  0.01966745 -0.00000264       0.031
   0.03933888  0.01966573 -0.00000410       0.031
  -0.01967179  0.01967088  0.00000030       0.031
  -0.00000313  0.03933833 -0.00000234       0.016
   0.01966709  0.03933661 -0.00000381       0.031
   0.03933731  0.03933489 -0.00000527       0.016
  -0.00000184 -0.00000179  0.01967216       0.031
   0.01966838 -0.00000351  0.01967070       0.031
   0.03933860 -0.00000522  0.01966923       0.031
  -0.01967206 -0.00000008  0.01967363       0.031
  -0.00000340  0.01966737  0.01967099       0.031
   0.01966682  0.01966566  0.01966953       0.031
   0.03933704  0.01966394  0.01966806       0.031
  -0.01967362  0.01966909  0.01967246       0.031
  -0.00000497  0.03933654  0.01966982       0.031
   0.01966525  0.03933482  0.01966835       0.031
   0.03933548  0.03933310  0.01966689       0.031
  -0.01967519  0.03933825  0.01967129       0.031
  -0.00000027 -0.01967096  0.01967333       0.031
   0.01966995 -0.01967267  0.01967187       0.031
   0.03934017 -0.01967439  0.01967040       0.031
  -0.01967050 -0.01966924  0.01967480       0.031
  -0.00000368 -0.00000358  0.03934432       0.016
   0.01966654 -0.00000530  0.03934286       0.031
   0.03933677 -0.00000702  0.03934139       0.016
  -0.00000524  0.01966558  0.03934315       0.031
   0.01966498  0.01966386  0.03934169       0.031
   0.03933520  0.01966215  0.03934022       0.031
  -0.01967546  0.01966730  0.03934462       0.031
  -0.00000680  0.03933474  0.03934198       0.016
   0.01966342  0.03933303  0.03934052       0.031
   0.03933364  0.03933131  0.03933905       0.016
 
 k-points in reciprocal lattice and weights: agbii                                   
   0.00000000  0.00000000  0.00000000       0.016
   0.25000000 -0.00000000  0.00000000       0.031
   0.50000000 -0.00000000  0.00000000       0.016
   0.00000000  0.25000000  0.00000000       0.031
   0.25000000  0.25000000  0.00000000       0.031
   0.50000000  0.25000000  0.00000000       0.031
  -0.25000000  0.25000000 -0.00000000       0.031
   0.00000000  0.50000000  0.00000000       0.016
   0.25000000  0.50000000 -0.00000000       0.031
   0.50000000  0.50000000 -0.00000000       0.016
   0.00000000 -0.00000000  0.25000000       0.031
   0.25000000 -0.00000000  0.25000000       0.031
   0.50000000 -0.00000000  0.25000000       0.031
  -0.25000000  0.00000000  0.25000000       0.031
   0.00000000  0.25000000  0.25000000       0.031
   0.25000000  0.25000000  0.25000000       0.031
   0.50000000  0.25000000  0.25000000       0.031
  -0.25000000  0.25000000  0.25000000       0.031
   0.00000000  0.50000000  0.25000000       0.031
   0.25000000  0.50000000  0.25000000       0.031
   0.50000000  0.50000000  0.25000000       0.031
  -0.25000000  0.50000000  0.25000000       0.031
  -0.00000000 -0.25000000  0.25000000       0.031
   0.25000000 -0.25000000  0.25000000       0.031
   0.50000000 -0.25000000  0.25000000       0.031
  -0.25000000 -0.25000000  0.25000000       0.031
   0.00000000 -0.00000000  0.50000000       0.016
   0.25000000 -0.00000000  0.50000000       0.031
   0.50000000 -0.00000000  0.50000000       0.016
   0.00000000  0.25000000  0.50000000       0.031
   0.25000000  0.25000000  0.50000000       0.031
   0.50000000  0.25000000  0.50000000       0.031
  -0.25000000  0.25000000  0.50000000       0.031
   0.00000000  0.50000000  0.50000000       0.016
   0.25000000  0.50000000  0.50000000       0.031
   0.50000000  0.50000000  0.50000000       0.016
 
 position of ions in fractional coordinates (direct lattice) 
   0.97665337  0.00481649  0.01015570
   0.75069344  0.77582298  0.02472932
   0.99549243  0.24655579  0.25273041
   0.02325163  0.48828687  0.49549710
   0.49603766  0.00270056  0.49802423
   0.52326140  0.75966652  0.25558572
   0.47676383  0.24447582  0.74059564
   0.25003101  0.47530330  0.72427565
   0.24644720  0.24878215  0.99891772
   0.50023832  0.50259148  0.99754480
   0.00006667  0.74801884  0.75181159
   0.25022585  0.00024692  0.24997019
   0.74636499  0.00098520  0.75123051
   0.75372029  0.50168502  0.25167833
   0.74984556  0.24937205  0.50036829
   0.25349952  0.74840697  0.49876712
   0.25674860  0.00290773  0.00320304
   0.24276928  0.00042286  0.49516267
   0.25358447  0.49560269  0.00959210
   0.25748012  0.50822697  0.49346795
   0.74240165  0.00640116  0.99176365
   0.75752566  0.00492603  0.49984200
   0.74675308  0.49052752  0.00461924
   0.74345739  0.49666645  0.49732282
   0.00814291  0.24446134  0.01133558
   0.99433848  0.25894946  0.49010969
   0.98032372  0.75883553  0.99254186
   0.00249267  0.73821770  0.50180025
   0.49768079  0.25225561  0.98720403
   0.50553230  0.23976732  0.51077307
   0.52067126  0.74292923  0.00880674
   0.49188404  0.76064575  0.49519576
   0.00582307  0.00957582  0.23984171
   0.99763914  0.99813465  0.76261650
   0.99197683  0.48896540  0.25618091
   0.01989908  0.50733007  0.74015728
   0.49464259  0.98922308  0.26041686
   0.50803239  0.00502059  0.73944711
   0.50260962  0.51301989  0.24796869
   0.47985952  0.49152494  0.75715943
   0.25777436  0.24475343  0.25019300
   0.24242488  0.24449683  0.75832704
   0.24335356  0.75300563  0.25324779
   0.24650062  0.75890271  0.74595278
   0.74239927  0.24961351  0.25515703
   0.75678365  0.24673952  0.74710238
   0.75790310  0.74177115  0.25579296
   0.75343252  0.75410514  0.74094307
 
 position of ions in cartesian coordinates  (Angst):
  12.41285699  0.06221363  0.13022745
   9.54187288  9.86168211  0.31605791
  12.65279126  3.13498336  3.21324522
   0.29652931  6.20664690  6.29752544
   6.30489910  0.03520290  6.32964025
   6.65151082  9.65627416  3.24956451
   6.06043507  3.10839109  9.41257085
   3.17899951  6.04202470  9.20516923
   3.13345982  3.16308820 12.69514021
   6.35931541  6.38932401 12.67828800
   0.00238934  9.50807585  9.55512349
   3.18049948  0.00358043  3.17699696
   9.48668926  0.01384482  9.54776032
   9.58025384  6.37749466  3.19988327
   9.53096353  3.17071771  6.36001640
   3.22317193  9.51307378  6.33965654
   3.26316989  0.03721991  0.04101361
   3.08596232  0.00599463  6.29297125
   3.22350774  6.29949806  0.12277449
   3.27349232  6.46032583  6.27203961
   9.43655091  0.08286096 12.60453246
   9.62830266  0.06375493  6.35305422
   9.49145717  6.23548604  0.06015778
   9.45004410  6.31388277  6.32159242
   0.10377468  3.10718169  0.14434883
  12.63836371  3.29268841  6.22994838
  12.46127269  9.64673155 12.61557597
   0.03297498  9.38331417  6.37789257
   6.32652286  3.20748184 12.54658133
   6.42584683  3.04840013  6.49194230
   6.61833893  9.44334972  0.11339754
   6.25294633  9.66887003  6.29456790
   0.07424656  0.12189836  3.04800161
  12.68139183 12.68812696  9.69391020
  12.60838170  6.21606930  3.25737176
   0.25417272  6.44887245  9.40676167
   6.28803728 12.57397045  3.31119201
   6.45757824  0.06488580  9.39773476
   6.38875497  6.52130708  3.15245481
   6.10006960  6.24846308  9.62335836
   3.27670915  3.11132727  3.18012066
   3.08210521  3.10843475  9.63762869
   3.09399362  9.57132801  3.21951322
   3.13446480  9.64665726  9.48097322
   9.43609228  3.17359378  3.24378635
   9.61937458  3.13745130  9.49559577
   9.63368577  9.42905687  3.25245625
   9.57734008  9.58618750  9.41790478
 


--------------------------------------------------------------------------------------------------------


 k-point   1 :   0.0000 0.0000 0.0000  plane waves:   18349
 k-point   2 :   0.2500-0.0000 0.0000  plane waves:   18465
 k-point   3 :   0.5000-0.0000 0.0000  plane waves:   18464
 k-point   4 :   0.0000 0.2500 0.0000  plane waves:   18466
 k-point   5 :   0.2500 0.2500 0.0000  plane waves:   18429
 k-point   6 :   0.5000 0.2500 0.0000  plane waves:   18418
 k-point   7 :  -0.2500 0.2500-0.0000  plane waves:   18429
 k-point   8 :   0.0000 0.5000 0.0000  plane waves:   18464
 k-point   9 :   0.2500 0.5000-0.0000  plane waves:   18418
 k-point  10 :   0.5000 0.5000-0.0000  plane waves:   18428
 k-point  11 :   0.0000-0.0000 0.2500  plane waves:   18465
 k-point  12 :   0.2500-0.0000 0.2500  plane waves:   18429
 k-point  13 :   0.5000-0.0000 0.2500  plane waves:   18418
 k-point  14 :  -0.2500 0.0000 0.2500  plane waves:   18429
 k-point  15 :   0.0000 0.2500 0.2500  plane waves:   18429
 k-point  16 :   0.2500 0.2500 0.2500  plane waves:   18430
 k-point  17 :   0.5000 0.2500 0.2500  plane waves:   18438
 k-point  18 :  -0.2500 0.2500 0.2500  plane waves:   18430
 k-point  19 :   0.0000 0.5000 0.2500  plane waves:   18418
 k-point  20 :   0.2500 0.5000 0.2500  plane waves:   18438
 k-point  21 :   0.5000 0.5000 0.2500  plane waves:   18435
 k-point  22 :  -0.2500 0.5000 0.2500  plane waves:   18438
 k-point  23 :  -0.0000-0.2500 0.2500  plane waves:   18429
 k-point  24 :   0.2500-0.2500 0.2500  plane waves:   18430
 k-point  25 :   0.5000-0.2500 0.2500  plane waves:   18438
 k-point  26 :  -0.2500-0.2500 0.2500  plane waves:   18430
 k-point  27 :   0.0000-0.0000 0.5000  plane waves:   18464
 k-point  28 :   0.2500-0.0000 0.5000  plane waves:   18418
 k-point  29 :   0.5000-0.0000 0.5000  plane waves:   18442
 k-point  30 :   0.0000 0.2500 0.5000  plane waves:   18418
 k-point  31 :   0.2500 0.2500 0.5000  plane waves:   18438
 k-point  32 :   0.5000 0.2500 0.5000  plane waves:   18433
 k-point  33 :  -0.2500 0.2500 0.5000  plane waves:   18438
 k-point  34 :   0.0000 0.5000 0.5000  plane waves:   18438
 k-point  35 :   0.2500 0.5000 0.5000  plane waves:   18433
 k-point  36 :   0.5000 0.5000 0.5000  plane waves:   18336

 maximum and minimum number of plane-waves per node :     18466    18336

 maximum number of plane-waves:     18466
 maximum index in each direction: 
   IXMAX=   16   IYMAX=   16   IZMAX=   16
   IXMIN=  -16   IYMIN=  -16   IZMIN=  -16


 serial   3D FFT for wavefunctions
 parallel 3D FFT for charge:
    minimum data exchange during FFTs selected (reduces bandwidth)


 total amount of memory used by VASP MPI-rank0  2761814. kBytes
=======================================================================

   base      :      30000. kBytes
   nonl-proj :     301365. kBytes
   fftplans  :      34720. kBytes
   grid      :      70000. kBytes
   one-center:        746. kBytes
   wavefun   :    2324983. kBytes
 
     INWAV:  cpu time    4.4950: real time    5.5117
 Broyden mixing: mesh for mixing (old mesh)
   NGX = 33   NGY = 33   NGZ = 33
  (NGX  =100   NGY  =100   NGZ  =100)
  gives a total of  35937 points

 initial charge density was supplied:
 number of electron     352.0000471 magnetization 
 keeping initial charge density in first step


--------------------------------------------------------------------------------------------------------


 Maximum index for augmentation-charges         5628 (set IRDMAX)


--------------------------------------------------------------------------------------------------------


 First call to EWALD:  gamma=   0.139
 Maximum number of real-space cells 3x 3x 3
 Maximum number of reciprocal cells 3x 3x 3

    FEWALD:  cpu time    0.0027: real time    0.0027


--------------------------------------- Iteration      1(   1)  ---------------------------------------


    POTLOK:  cpu time    0.5831: real time    0.5913
    SETDIJ:  cpu time    0.0284: real time    0.0284
     EDDAV:  cpu time   58.3968: real time   58.3987
 BZINTS: Fermi energy:    2.092779;  352.000000 electrons
         Band energy:-0.747663E+03;  BLOECHL correction:   -0.000000
       DOS:  cpu time    0.0563: real time    0.0563
    CHARGE:  cpu time    1.2068: real time    1.2069
    MIXING:  cpu time    0.0293: real time    0.0293
    --------------------------------------------
      LOOP:  cpu time   60.3008: real time   60.3109

 eigenvalue-minimisations  : 10432
 total energy-change (2. order) :-0.1199666E+03  (-0.2768558E-06)
 number of electron     352.0000471 magnetization 
 augmentation part      -23.1244425 magnetization 

 Broyden mixing:
  rms(total) = 0.66591E-03    rms(broyden)= 0.66587E-03
  rms(prec ) = 0.77959E-03
  weight for this iteration     100.00

 Free energy of the ion-electron system (eV)
  ---------------------------------------------------
  alpha Z        PSCENC =       226.84640187
  Ewald energy   TEWEN  =    -13908.90773018
  -Hartree energ DENC   =     -6052.16017812
  -exchange      EXHF   =         0.00000000
  -V(xc)+E(xc)   XCENC  =     -1392.27131408
  PAW double counting   =     22650.94744834   -20508.48150704
  entropy T*S    EENTRO =         0.00000000
  eigenvalues    EBANDS =      -747.66349280
  atomic energy  EATOM  =     19611.72375700
  Solvation  Ediel_sol  =         0.00000000
  ---------------------------------------------------
  free energy    TOTEN  =      -119.96661501 eV

  energy without entropy =     -119.96661501  energy(sigma->0) =     -119.96661501


--------------------------------------------------------------------------------------------------------




--------------------------------------- Iteration      1(   2)  ---------------------------------------


    POTLOK:  cpu time    0.5610: real time    0.5611
    SETDIJ:  cpu time    0.0558: real time    0.0558
     EDDAV:  cpu time   49.9708: real time   49.9723
 BZINTS: Fermi energy:    2.093016;  352.000000 electrons
         Band energy:-0.747661E+03;  BLOECHL correction:    0.000000
       DOS:  cpu time    0.0542: real time    0.0542
    --------------------------------------------
      LOOP:  cpu time   50.6417: real time   50.6434

 eigenvalue-minimisations  :  8208
 total energy-change (2. order) : 0.5264155E-07  (-0.1164775E-06)
 number of electron     352.0000471 magnetization 
 augmentation part      -23.1244425 magnetization 

 Free energy of the ion-electron system (eV)
  ---------------------------------------------------
  alpha Z        PSCENC =       226.84640187
  Ewald energy   TEWEN  =    -13908.90773018
  -Hartree energ DENC   =     -6052.16282426
  -exchange      EXHF   =         0.00000000
  -V(xc)+E(xc)   XCENC  =     -1392.27079783
  PAW double counting   =     22650.50990836   -20508.04477674
  entropy T*S    EENTRO =         0.00000000
  eigenvalues    EBANDS =      -747.66055317
  atomic energy  EATOM  =     19611.72375700
  Solvation  Ediel_sol  =         0.00000000
  ---------------------------------------------------
  free energy    TOTEN  =      -119.96661495 eV

  energy without entropy =     -119.96661495  energy(sigma->0) =     -119.96661495


--------------------------------------------------------------------------------------------------------




 average (electrostatic) potential at core
  the test charge radii are     1.1249  1.4024  1.1875
  (the norm of the test charge is              1.0000)
       1 -75.0294       2 -75.1554       3 -74.9727       4 -75.0307       5 -74.9717
       6 -75.0261       7 -75.0283       8 -75.1565       9 -65.4971      10 -65.4429
      11 -65.4435      12 -65.4728      13 -65.5003      14 -65.4994      15 -65.4742
      16 -65.4994      17 -93.3092      18 -93.2966      19 -93.2914      20 -93.2045
      21 -93.1959      22 -93.2768      23 -93.2894      24 -93.3023      25 -93.0489
      26 -92.9738      27 -93.0568      28 -93.1483      29 -93.1569      30 -92.9783
      31 -93.0532      32 -93.0407      33 -92.9755      34 -93.1583      35 -93.0466
      36 -93.0652      37 -92.9703      38 -93.0505      39 -93.1587      40 -93.0544
      41 -93.2721      42 -93.1886      43 -93.3035      44 -93.2956      45 -93.2968
      46 -93.3134      47 -93.1981      48 -93.2968
 
 
 
 E-fermi :   2.0930     XC(G=0):  -7.8203     alpha+bet : -7.7968


 k-point     1 :       0.0000    0.0000    0.0000
  band No.  band energies     occupation 
      1     -10.8164      2.00000
      2     -10.6850      2.00000
      3     -10.6401      2.00000
      4     -10.5050      2.00000
      5     -10.4530      2.00000
      6     -10.2272      2.00000
      7     -10.1937      2.00000
      8     -10.0136      2.00000
      9      -9.8620      2.00000
     10      -9.8522      2.00000
     11      -9.8391      2.00000
     12      -9.8165      2.00000
     13      -9.8117      2.00000
     14      -9.7796      2.00000
     15      -9.7773      2.00000
     16      -9.7106      2.00000
     17      -9.6996      2.00000
     18      -9.6829      2.00000
     19      -9.6797      2.00000
     20      -9.6767      2.00000
     21      -9.6522      2.00000
     22      -9.6293      2.00000
     23      -9.6229      2.00000
     24      -9.5965      2.00000
     25      -9.5842      2.00000
     26      -9.5752      2.00000
     27      -9.5587      2.00000
     28      -9.5318      2.00000
     29      -9.5248      2.00000
     30      -9.5196      2.00000
     31      -9.5131      2.00000
     32      -9.4808      2.00000
     33      -8.1890      2.00000
     34      -8.0910      2.00000
     35      -8.0788      2.00000
     36      -7.8503      2.00000
     37      -7.8247      2.00000
     38      -7.6171      2.00000
     39      -7.6012      2.00000
     40      -7.5988      2.00000
     41      -1.7940      2.00000
     42      -1.7346      2.00000
     43      -1.6868      2.00000
     44      -1.6783      2.00000
     45      -1.6267      2.00000
     46      -1.5597      2.00000
     47      -1.4998      2.00000
     48      -1.4457      2.00000
     49      -1.4423      2.00000
     50      -1.4075      2.00000
     51      -1.4040      2.00000
     52      -1.3641      2.00000
     53      -1.3282      2.00000
     54      -1.2938      2.00000
     55      -1.2872      2.00000
     56      -1.2507      2.00000
     57      -1.2044      2.00000
     58      -1.1992      2.00000
     59      -1.1274      2.00000
     60      -1.0799      2.00000
     61      -1.0745      2.00000
     62      -1.0350      2.00000
     63      -0.9946      2.00000
     64      -0.9917      2.00000
     65      -0.9844      2.00000
     66      -0.9709      2.00000
     67      -0.9560      2.00000
     68      -0.9538      2.00000
     69      -0.9317      2.00000
     70      -0.8953      2.00000
     71      -0.8896      2.00000
     72      -0.8862      2.00000
     73      -0.8526      2.00000
     74      -0.8226      2.00000
     75      -0.8196      2.00000
     76      -0.7878      2.00000
     77      -0.7844      2.00000
     78      -0.7747      2.00000
     79      -0.7560      2.00000
     80      -0.7085      2.00000
     81      -0.6758      2.00000
     82      -0.6666      2.00000
     83      -0.6310      2.00000
     84      -0.6139      2.00000
     85      -0.6052      2.00000
     86      -0.5852      2.00000
     87      -0.5521      2.00000
     88      -0.5231      2.00000
     89      -0.5121      2.00000
     90      -0.4788      2.00000
     91      -0.4524      2.00000
     92      -0.4408      2.00000
     93      -0.4283      2.00000
     94      -0.3846      2.00000
     95      -0.3715      2.00000
     96      -0.3431      2.00000
     97      -0.3277      2.00000
     98      -0.3171      2.00000
     99      -0.2935      2.00000
    100      -0.2889      2.00000
    101      -0.2553      2.00000
    102      -0.2362      2.00000
    103      -0.2324      2.00000
    104      -0.1997      2.00000
    105      -0.1771      2.00000
    106      -0.1722      2.00000
    107      -0.1461      2.00000
    108      -0.1230      2.00000
    109      -0.0960      2.00000
    110      -0.0836      2.00000
    111      -0.0307      2.00000
    112      -0.0132      2.00000
    113       0.1057      2.00000
    114       0.1547      2.00000
    115       0.1966      2.00000
    116       0.2054      2.00000
    117       0.2093      2.00000
    118       0.2366      2.00000
    119       0.2618      2.00000
    120       0.2709      2.00000
    121       0.2792      2.00000
    122       0.3182      2.00000
    123       0.3848      2.00000
    124       0.4234      2.00000
    125       0.4303      2.00000
    126       0.4412      2.00000
    127       0.5091      2.00000
    128       0.5434      2.00000
    129       0.5496      2.00000
    130       0.5528      2.00000
    131       0.5661      2.00000
    132       0.5780      2.00000
    133       0.6164      2.00000
    134       0.6684      2.00000
    135       0.7209      2.00000
    136       0.7369      2.00000
    137       0.7427      2.00000
    138       0.7440      2.00000
    139       0.7572      2.00000
    140       0.8096      2.00000
    141       0.8103      2.00000
    142       0.8249      2.00000
    143       0.8500      2.00000
    144       0.8670      2.00000
    145       0.8746      2.00000
    146       0.9161      2.00000
    147       0.9674      2.00000
    148       0.9950      2.00000
    149       1.0198      2.00000
    150       1.0547      2.00000
    151       1.0938      2.00000
    152       1.1198      2.00000
    153       1.1316      2.00000
    154       1.1822      2.00000
    155       1.1949      2.00000
    156       1.2029      2.00000
    157       1.2249      2.00000
    158       1.2345      2.00000
    159       1.2731      2.00000
    160       1.3399      2.00000
    161       1.3877      2.00000
    162       1.4306      2.00000
    163       1.4942      2.00000
    164       1.5233      2.00000
    165       1.5715      2.00000
    166       1.5855      2.00000
    167       1.6086      2.00000
    168       1.6343      2.00000
    169       1.7915      2.00000
    170       1.7960      2.00000
    171       1.9114      2.00000
    172       1.9269      2.00000
    173       2.0356      2.00000
    174       2.0484      2.00000
    175       2.0634      2.00000
    176       2.0929      2.00000
    177       3.8707      0.00000
    178       4.0334      0.00000
    179       4.0411      0.00000
    180       4.1540      0.00000
    181       4.1921      0.00000
    182       4.3745      0.00000
    183       4.3748      0.00000
    184       4.4229      0.00000
    185       4.4485      0.00000
    186       4.4668      0.00000
    187       4.5441      0.00000
    188       4.5603      0.00000
    189       4.5862      0.00000
    190       4.5903      0.00000
    191       4.6307      0.00000
    192       4.6397      0.00000
    193       4.6687      0.00000
    194       4.7306      0.00000
    195       4.7591      0.00000
    196       4.7645      0.00000
    197       4.8301      0.00000
    198       4.8598      0.00000
    199       4.8660      0.00000
    200       4.9808      0.00000
    201       5.1078      0.00000
    202       5.3009      0.00000
    203       5.6138      0.00000
    204       5.7545      0.00000
    205       5.9541      0.00000
    206       5.9750      0.00000
    207       5.9873      0.00000
    208       6.0219      0.00000
    209       7.1823      0.00000
    210       7.2875      0.00000
    211       7.2998      0.00000

 k-point     2 :       0.2500   -0.0000    0.0000
  band No.  band energies     occupation 
      1     -10.8020      2.00000
      2     -10.7158      2.00000
      3     -10.6155      2.00000
      4     -10.5348      2.00000
      5     -10.4173      2.00000
      6     -10.2892      2.00000
      7     -10.1318      2.00000
      8     -10.0296      2.00000
      9      -9.8628      2.00000
     10      -9.8544      2.00000
     11      -9.8309      2.00000
     12      -9.8190      2.00000
     13      -9.8164      2.00000
     14      -9.7966      2.00000
     15      -9.7566      2.00000
     16      -9.7055      2.00000
     17      -9.7042      2.00000
     18      -9.6894      2.00000
     19      -9.6724      2.00000
     20      -9.6667      2.00000
     21      -9.6529      2.00000
     22      -9.6454      2.00000
     23      -9.6086      2.00000
     24      -9.5966      2.00000
     25      -9.5917      2.00000
     26      -9.5769      2.00000
     27      -9.5506      2.00000
     28      -9.5274      2.00000
     29      -9.5250      2.00000
     30      -9.5218      2.00000
     31      -9.5150      2.00000
     32      -9.4876      2.00000
     33      -8.1830      2.00000
     34      -8.1308      2.00000
     35      -8.0316      2.00000
     36      -7.9080      2.00000
     37      -7.7693      2.00000
     38      -7.6452      2.00000
     39      -7.6050      2.00000
     40      -7.5792      2.00000
     41      -1.7782      2.00000
     42      -1.7209      2.00000
     43      -1.7015      2.00000
     44      -1.6563      2.00000
     45      -1.6496      2.00000
     46      -1.5650      2.00000
     47      -1.5124      2.00000
     48      -1.4697      2.00000
     49      -1.4299      2.00000
     50      -1.4223      2.00000
     51      -1.4070      2.00000
     52      -1.3687      2.00000
     53      -1.3089      2.00000
     54      -1.2855      2.00000
     55      -1.2544      2.00000
     56      -1.2482      2.00000
     57      -1.2449      2.00000
     58      -1.1741      2.00000
     59      -1.1229      2.00000
     60      -1.1134      2.00000
     61      -1.0698      2.00000
     62      -1.0625      2.00000
     63      -1.0551      2.00000
     64      -1.0009      2.00000
     65      -0.9975      2.00000
     66      -0.9744      2.00000
     67      -0.9621      2.00000
     68      -0.9235      2.00000
     69      -0.9159      2.00000
     70      -0.8985      2.00000
     71      -0.8824      2.00000
     72      -0.8755      2.00000
     73      -0.8593      2.00000
     74      -0.8300      2.00000
     75      -0.8001      2.00000
     76      -0.7849      2.00000
     77      -0.7696      2.00000
     78      -0.7546      2.00000
     79      -0.7304      2.00000
     80      -0.7191      2.00000
     81      -0.6861      2.00000
     82      -0.6475      2.00000
     83      -0.6229      2.00000
     84      -0.6014      2.00000
     85      -0.6003      2.00000
     86      -0.5814      2.00000
     87      -0.5580      2.00000
     88      -0.5247      2.00000
     89      -0.4979      2.00000
     90      -0.4547      2.00000
     91      -0.4530      2.00000
     92      -0.4375      2.00000
     93      -0.4190      2.00000
     94      -0.3807      2.00000
     95      -0.3581      2.00000
     96      -0.3481      2.00000
     97      -0.3412      2.00000
     98      -0.3159      2.00000
     99      -0.2908      2.00000
    100      -0.2898      2.00000
    101      -0.2567      2.00000
    102      -0.2475      2.00000
    103      -0.2441      2.00000
    104      -0.1957      2.00000
    105      -0.1926      2.00000
    106      -0.1772      2.00000
    107      -0.1551      2.00000
    108      -0.1489      2.00000
    109      -0.1239      2.00000
    110      -0.1129      2.00000
    111      -0.0802      2.00000
    112      -0.0459      2.00000
    113       0.0997      2.00000
    114       0.1717      2.00000
    115       0.1985      2.00000
    116       0.2103      2.00000
    117       0.2575      2.00000
    118       0.2712      2.00000
    119       0.2948      2.00000
    120       0.3053      2.00000
    121       0.3292      2.00000
    122       0.3761      2.00000
    123       0.3908      2.00000
    124       0.4295      2.00000
    125       0.4370      2.00000
    126       0.4459      2.00000
    127       0.4660      2.00000
    128       0.4942      2.00000
    129       0.5210      2.00000
    130       0.5441      2.00000
    131       0.5781      2.00000
    132       0.5907      2.00000
    133       0.6422      2.00000
    134       0.6782      2.00000
    135       0.6861      2.00000
    136       0.7019      2.00000
    137       0.7529      2.00000
    138       0.7605      2.00000
    139       0.7628      2.00000
    140       0.7873      2.00000
    141       0.8084      2.00000
    142       0.8192      2.00000
    143       0.8358      2.00000
    144       0.8736      2.00000
    145       0.8756      2.00000
    146       0.9336      2.00000
    147       0.9795      2.00000
    148       0.9843      2.00000
    149       1.0230      2.00000
    150       1.0481      2.00000
    151       1.0654      2.00000
    152       1.1249      2.00000
    153       1.1466      2.00000
    154       1.1797      2.00000
    155       1.1995      2.00000
    156       1.2090      2.00000
    157       1.2264      2.00000
    158       1.2575      2.00000
    159       1.2781      2.00000
    160       1.3039      2.00000
    161       1.4476      2.00000
    162       1.4827      2.00000
    163       1.4852      2.00000
    164       1.5003      2.00000
    165       1.5781      2.00000
    166       1.6055      2.00000
    167       1.6383      2.00000
    168       1.6456      2.00000
    169       1.7685      2.00000
    170       1.7789      2.00000
    171       1.8429      2.00000
    172       1.8524      2.00000
    173       2.0201      2.00000
    174       2.0358      2.00000
    175       2.0583      2.00000
    176       2.0830      2.00000
    177       3.9003      0.00000
    178       4.0008      0.00000
    179       4.1001      0.00000
    180       4.1576      0.00000
    181       4.2276      0.00000
    182       4.3442      0.00000
    183       4.3983      0.00000
    184       4.4406      0.00000
    185       4.4525      0.00000
    186       4.4807      0.00000
    187       4.5335      0.00000
    188       4.5406      0.00000
    189       4.5492      0.00000
    190       4.5929      0.00000
    191       4.6022      0.00000
    192       4.6706      0.00000
    193       4.7062      0.00000
    194       4.7305      0.00000
    195       4.7633      0.00000
    196       4.7809      0.00000
    197       4.7831      0.00000
    198       4.8202      0.00000
    199       4.8574      0.00000
    200       4.9490      0.00000
    201       5.2227      0.00000
    202       5.3832      0.00000
    203       5.6524      0.00000
    204       5.7411      0.00000
    205       5.8642      0.00000
    206       5.9179      0.00000
    207       5.9556      0.00000
    208       5.9737      0.00000
    209       7.2159      0.00000
    210       7.3974      0.00000
    211       7.4107      0.00000

 k-point     3 :       0.5000   -0.0000    0.0000
  band No.  band energies     occupation 
      1     -10.7648      2.00000
      2     -10.7627      2.00000
      3     -10.5773      2.00000
      4     -10.5765      2.00000
      5     -10.3583      2.00000
      6     -10.3570      2.00000
      7     -10.0716      2.00000
      8     -10.0694      2.00000
      9      -9.8608      2.00000
     10      -9.8580      2.00000
     11      -9.8261      2.00000
     12      -9.8240      2.00000
     13      -9.8109      2.00000
     14      -9.8100      2.00000
     15      -9.7287      2.00000
     16      -9.7268      2.00000
     17      -9.6981      2.00000
     18      -9.6962      2.00000
     19      -9.6656      2.00000
     20      -9.6643      2.00000
     21      -9.6497      2.00000
     22      -9.6488      2.00000
     23      -9.6020      2.00000
     24      -9.6004      2.00000
     25      -9.5879      2.00000
     26      -9.5871      2.00000
     27      -9.5381      2.00000
     28      -9.5365      2.00000
     29      -9.5211      2.00000
     30      -9.5192      2.00000
     31      -9.5069      2.00000
     32      -9.5043      2.00000
     33      -8.1652      2.00000
     34      -8.1628      2.00000
     35      -7.9734      2.00000
     36      -7.9729      2.00000
     37      -7.7053      2.00000
     38      -7.7048      2.00000
     39      -7.5852      2.00000
     40      -7.5837      2.00000
     41      -1.7399      2.00000
     42      -1.7381      2.00000
     43      -1.6909      2.00000
     44      -1.6892      2.00000
     45      -1.6027      2.00000
     46      -1.5997      2.00000
     47      -1.5074      2.00000
     48      -1.5048      2.00000
     49      -1.4405      2.00000
     50      -1.4397      2.00000
     51      -1.3776      2.00000
     52      -1.3762      2.00000
     53      -1.2923      2.00000
     54      -1.2917      2.00000
     55      -1.2579      2.00000
     56      -1.2545      2.00000
     57      -1.1713      2.00000
     58      -1.1702      2.00000
     59      -1.1678      2.00000
     60      -1.1663      2.00000
     61      -1.0764      2.00000
     62      -1.0752      2.00000
     63      -1.0357      2.00000
     64      -1.0304      2.00000
     65      -0.9953      2.00000
     66      -0.9937      2.00000
     67      -0.9495      2.00000
     68      -0.9459      2.00000
     69      -0.8992      2.00000
     70      -0.8942      2.00000
     71      -0.8704      2.00000
     72      -0.8660      2.00000
     73      -0.8479      2.00000
     74      -0.8472      2.00000
     75      -0.7794      2.00000
     76      -0.7759      2.00000
     77      -0.7629      2.00000
     78      -0.7567      2.00000
     79      -0.7196      2.00000
     80      -0.7172      2.00000
     81      -0.6779      2.00000
     82      -0.6737      2.00000
     83      -0.6045      2.00000
     84      -0.6037      2.00000
     85      -0.5528      2.00000
     86      -0.5520      2.00000
     87      -0.5400      2.00000
     88      -0.5379      2.00000
     89      -0.4923      2.00000
     90      -0.4916      2.00000
     91      -0.4486      2.00000
     92      -0.4464      2.00000
     93      -0.3921      2.00000
     94      -0.3893      2.00000
     95      -0.3520      2.00000
     96      -0.3508      2.00000
     97      -0.3130      2.00000
     98      -0.3116      2.00000
     99      -0.2959      2.00000
    100      -0.2915      2.00000
    101      -0.2656      2.00000
    102      -0.2643      2.00000
    103      -0.1929      2.00000
    104      -0.1923      2.00000
    105      -0.1834      2.00000
    106      -0.1819      2.00000
    107      -0.1706      2.00000
    108      -0.1695      2.00000
    109      -0.1671      2.00000
    110      -0.1663      2.00000
    111      -0.1167      2.00000
    112      -0.1154      2.00000
    113       0.1186      2.00000
    114       0.1202      2.00000
    115       0.2284      2.00000
    116       0.2294      2.00000
    117       0.3148      2.00000
    118       0.3167      2.00000
    119       0.3468      2.00000
    120       0.3494      2.00000
    121       0.3841      2.00000
    122       0.3855      2.00000
    123       0.4118      2.00000
    124       0.4142      2.00000
    125       0.4566      2.00000
    126       0.4591      2.00000
    127       0.4754      2.00000
    128       0.4794      2.00000
    129       0.4993      2.00000
    130       0.5004      2.00000
    131       0.5685      2.00000
    132       0.5689      2.00000
    133       0.6109      2.00000
    134       0.6127      2.00000
    135       0.7264      2.00000
    136       0.7281      2.00000
    137       0.7578      2.00000
    138       0.7606      2.00000
    139       0.7819      2.00000
    140       0.7828      2.00000
    141       0.8190      2.00000
    142       0.8224      2.00000
    143       0.8473      2.00000
    144       0.8485      2.00000
    145       0.8712      2.00000
    146       0.8725      2.00000
    147       0.9687      2.00000
    148       0.9698      2.00000
    149       1.0374      2.00000
    150       1.0382      2.00000
    151       1.1120      2.00000
    152       1.1136      2.00000
    153       1.1752      2.00000
    154       1.1756      2.00000
    155       1.2127      2.00000
    156       1.2139      2.00000
    157       1.2393      2.00000
    158       1.2404      2.00000
    159       1.2653      2.00000
    160       1.2663      2.00000
    161       1.4753      2.00000
    162       1.4759      2.00000
    163       1.5435      2.00000
    164       1.5476      2.00000
    165       1.6313      2.00000
    166       1.6361      2.00000
    167       1.6851      2.00000
[...]
    143       0.8271      2.00000
    144       0.9103      2.00000
    145       0.9421      2.00000
    146       0.9819      2.00000
    147       1.0124      2.00000
    148       1.0374      2.00000
    149       1.0436      2.00000
    150       1.0796      2.00000
    151       1.0919      2.00000
    152       1.1185      2.00000
    153       1.1329      2.00000
    154       1.1379      2.00000
    155       1.1839      2.00000
    156       1.1921      2.00000
    157       1.2291      2.00000
    158       1.2634      2.00000
    159       1.2706      2.00000
    160       1.2898      2.00000
    161       1.5190      2.00000
    162       1.5200      2.00000
    163       1.5800      2.00000
    164       1.5937      2.00000
    165       1.6210      2.00000
    166       1.6229      2.00000
    167       1.6608      2.00000
    168       1.6784      2.00000
    169       1.7698      2.00000
    170       1.8070      2.00000
    171       1.8739      2.00000
    172       1.8841      2.00000
    173       1.8871      2.00000
    174       1.9060      2.00000
    175       2.0475      2.00000
    176       2.0650      2.00000
    177       3.7535      0.00000
    178       3.8134      0.00000
    179       3.9970      0.00000
    180       4.0545      0.00000
    181       4.1146      0.00000
    182       4.1388      0.00000
    183       4.2692      0.00000
    184       4.3180      0.00000
    185       4.3597      0.00000
    186       4.4138      0.00000
    187       4.4742      0.00000
    188       4.4898      0.00000
    189       4.6412      0.00000
    190       4.6537      0.00000
    191       4.6880      0.00000
    192       4.7528      0.00000
    193       4.8139      0.00000
    194       4.8257      0.00000
    195       4.8387      0.00000
    196       4.8544      0.00000
    197       4.9176      0.00000
    198       4.9215      0.00000
    199       4.9822      0.00000
    200       5.0106      0.00000
    201       5.5829      0.00000
    202       5.5937      0.00000
    203       5.6236      0.00000
    204       5.6378      0.00000
    205       5.6520      0.00000
    206       5.7093      0.00000
    207       5.7985      0.00000
    208       5.8395      0.00000
    209       7.3838      0.00000
    210       7.4286      0.00000
    211       7.5587      0.00000

 k-point    36 :       0.5000    0.5000    0.5000
  band No.  band energies     occupation 
      1     -10.7407      2.00000
      2     -10.7383      2.00000
      3     -10.6121      2.00000
      4     -10.6115      2.00000
      5     -10.3560      2.00000
      6     -10.3552      2.00000
      7     -10.0887      2.00000
      8     -10.0867      2.00000
      9      -9.8789      2.00000
     10      -9.8758      2.00000
     11      -9.7867      2.00000
     12      -9.7853      2.00000
     13      -9.7607      2.00000
     14      -9.7600      2.00000
     15      -9.7206      2.00000
     16      -9.7200      2.00000
     17      -9.6979      2.00000
     18      -9.6958      2.00000
     19      -9.6743      2.00000
     20      -9.6722      2.00000
     21      -9.6689      2.00000
     22      -9.6666      2.00000
     23      -9.6069      2.00000
     24      -9.6042      2.00000
     25      -9.5844      2.00000
     26      -9.5829      2.00000
     27      -9.5567      2.00000
     28      -9.5545      2.00000
     29      -9.5220      2.00000
     30      -9.5195      2.00000
     31      -9.5118      2.00000
     32      -9.5090      2.00000
     33      -8.1666      2.00000
     34      -8.1645      2.00000
     35      -7.9727      2.00000
     36      -7.9723      2.00000
     37      -7.7338      2.00000
     38      -7.7333      2.00000
     39      -7.5573      2.00000
     40      -7.5557      2.00000
     41      -1.7540      2.00000
     42      -1.7524      2.00000
     43      -1.6507      2.00000
     44      -1.6490      2.00000
     45      -1.6053      2.00000
     46      -1.6023      2.00000
     47      -1.5138      2.00000
     48      -1.5103      2.00000
     49      -1.4602      2.00000
     50      -1.4587      2.00000
     51      -1.4306      2.00000
     52      -1.4291      2.00000
     53      -1.3505      2.00000
     54      -1.3501      2.00000
     55      -1.2585      2.00000
     56      -1.2552      2.00000
     57      -1.2404      2.00000
     58      -1.2361      2.00000
     59      -1.1130      2.00000
     60      -1.1110      2.00000
     61      -1.0163      2.00000
     62      -1.0153      2.00000
     63      -0.9826      2.00000
     64      -0.9772      2.00000
     65      -0.9671      2.00000
     66      -0.9635      2.00000
     67      -0.9387      2.00000
     68      -0.9356      2.00000
     69      -0.8866      2.00000
     70      -0.8806      2.00000
     71      -0.8550      2.00000
     72      -0.8515      2.00000
     73      -0.8381      2.00000
     74      -0.8371      2.00000
     75      -0.8120      2.00000
     76      -0.8111      2.00000
     77      -0.8032      2.00000
     78      -0.7976      2.00000
     79      -0.7140      2.00000
     80      -0.7131      2.00000
     81      -0.6659      2.00000
     82      -0.6642      2.00000
     83      -0.5987      2.00000
     84      -0.5940      2.00000
     85      -0.5620      2.00000
     86      -0.5591      2.00000
     87      -0.5220      2.00000
     88      -0.5211      2.00000
     89      -0.4860      2.00000
     90      -0.4858      2.00000
     91      -0.4477      2.00000
     92      -0.4469      2.00000
     93      -0.3739      2.00000
     94      -0.3725      2.00000
     95      -0.3546      2.00000
     96      -0.3532      2.00000
     97      -0.3278      2.00000
     98      -0.3270      2.00000
     99      -0.2818      2.00000
    100      -0.2801      2.00000
    101      -0.2784      2.00000
    102      -0.2759      2.00000
    103      -0.2261      2.00000
    104      -0.2235      2.00000
    105      -0.1808      2.00000
    106      -0.1801      2.00000
    107      -0.1535      2.00000
    108      -0.1507      2.00000
    109      -0.1123      2.00000
    110      -0.1115      2.00000
    111      -0.0509      2.00000
    112      -0.0492      2.00000
    113       0.0645      2.00000
    114       0.0659      2.00000
    115       0.1733      2.00000
    116       0.1759      2.00000
    117       0.2604      2.00000
    118       0.2616      2.00000
    119       0.3139      2.00000
    120       0.3164      2.00000
    121       0.3933      2.00000
    122       0.3943      2.00000
    123       0.3970      2.00000
    124       0.3986      2.00000
    125       0.4477      2.00000
    126       0.4492      2.00000
    127       0.4802      2.00000
    128       0.4843      2.00000
    129       0.5415      2.00000
    130       0.5445      2.00000
    131       0.5797      2.00000
    132       0.5805      2.00000
    133       0.6022      2.00000
    134       0.6044      2.00000
    135       0.6339      2.00000
    136       0.6346      2.00000
    137       0.7017      2.00000
    138       0.7033      2.00000
    139       0.7309      2.00000
    140       0.7326      2.00000
    141       0.7682      2.00000
    142       0.7693      2.00000
    143       0.9082      2.00000
    144       0.9101      2.00000
    145       0.9401      2.00000
    146       0.9420      2.00000
    147       1.0631      2.00000
    148       1.0650      2.00000
    149       1.0834      2.00000
    150       1.0856      2.00000
    151       1.1054      2.00000
    152       1.1065      2.00000
    153       1.1207      2.00000
    154       1.1210      2.00000
    155       1.2062      2.00000
    156       1.2070      2.00000
    157       1.2358      2.00000
    158       1.2371      2.00000
    159       1.2995      2.00000
    160       1.3005      2.00000
    161       1.5136      2.00000
    162       1.5138      2.00000
    163       1.6134      2.00000
    164       1.6161      2.00000
    165       1.6195      2.00000
    166       1.6206      2.00000
    167       1.7299      2.00000
    168       1.7319      2.00000
    169       1.8054      2.00000
    170       1.8072      2.00000
    171       1.8724      2.00000
    172       1.8779      2.00000
    173       1.8962      2.00000
    174       1.8996      2.00000
    175       2.0564      2.00000
    176       2.0585      2.00000
    177       3.7403      0.00000
    178       3.7426      0.00000
    179       3.9445      0.00000
    180       3.9471      0.00000
    181       4.0716      0.00000
    182       4.0737      0.00000
    183       4.2580      0.00000
    184       4.2590      0.00000
    185       4.3469      0.00000
    186       4.3481      0.00000
    187       4.4542      0.00000
    188       4.4554      0.00000
    189       4.6479      0.00000
    190       4.6501      0.00000
    191       4.7333      0.00000
    192       4.7346      0.00000
    193       4.8498      0.00000
    194       4.8532      0.00000
    195       4.8811      0.00000
    196       4.8825      0.00000
    197       4.9848      0.00000
    198       4.9851      0.00000
    199       5.0599      0.00000
    200       5.0628      0.00000
    201       5.5746      0.00000
    202       5.5773      0.00000
    203       5.6045      0.00000
    204       5.6055      0.00000
    205       5.6385      0.00000
    206       5.6425      0.00000
    207       5.8340      0.00000
    208       5.8359      0.00000
    209       7.2692      0.00000
    210       7.2717      0.00000
    211       7.5380      0.00000


--------------------------------------------------------------------------------------------------------


 soft charge-density along one line, spin component           1
         0         1         2         3         4         5         6         7         8         9
 total charge-density along one line
 
 pseudopotential strength for first ion, spin component:           1
 -6.439   0.001  -0.001  -0.000  -0.001  -6.574   0.001  -0.001
  0.001  -6.434  -0.000   0.000   0.000   0.001  -6.569  -0.000
 -0.001  -0.000  -6.429   0.001   0.005  -0.001  -0.000  -6.565
 -0.000   0.000   0.001  -6.442   0.001  -0.000   0.000   0.001
 -0.001   0.000   0.005   0.001  -6.433  -0.001   0.000   0.005
 -6.574   0.001  -0.001  -0.000  -0.001  -6.679   0.001  -0.001
  0.001  -6.569  -0.000   0.000   0.000   0.001  -6.674  -0.000
 -0.001  -0.000  -6.565   0.001   0.005  -0.001  -0.000  -6.670
 -0.000   0.000   0.001  -6.577   0.001  -0.000   0.000   0.001
 -0.001   0.000   0.005   0.001  -6.568  -0.001   0.000   0.005
  0.000   0.000   0.001   0.001   0.001   0.000   0.000   0.001
  0.000   0.001   0.002   0.001   0.001   0.000   0.001   0.002
  0.006  -0.006   0.001  -0.000   0.002   0.006  -0.006   0.001
 -0.000  -0.002  -0.007   0.006  -0.000  -0.000  -0.001  -0.007
 -0.002  -0.000  -0.004  -0.006   0.007  -0.002  -0.000  -0.004
  0.008  -0.007   0.001  -0.000   0.002   0.007  -0.007   0.001
 -0.000  -0.002  -0.009   0.007  -0.000  -0.000  -0.002  -0.008
 -0.002  -0.000  -0.005  -0.007   0.008  -0.002  -0.000  -0.005
 total augmentation occupancy for first ion, spin component:           1
  2.296   0.007  -0.066  -0.002  -0.140  -0.297  -0.012   0.065  -0.002   0.124  -0.061   0.013  -0.042  -0.000  -0.010   0.005
  0.007   2.275   0.006   0.005  -0.055  -0.012  -0.297  -0.010  -0.008   0.054  -0.063   0.014   0.018   0.001  -0.004  -0.004
 -0.066   0.006   4.262   0.069   0.175   0.065  -0.010  -2.101  -0.069  -0.158  -0.213   0.035   0.020  -0.117  -0.123  -0.001
 -0.002   0.005   0.069   2.295   0.104  -0.002  -0.008  -0.069  -0.320  -0.104  -0.136   0.022  -0.001  -0.068   0.026   0.000
 -0.140  -0.055   0.175   0.104   3.891   0.124   0.054  -0.158  -0.104  -1.735   0.076  -0.003   0.012  -0.005   0.184  -0.000
 -0.297  -0.012   0.065  -0.002   0.124   0.282   0.017  -0.063   0.005  -0.110   0.055  -0.014   0.030   0.000   0.011  -0.002
 -0.012  -0.297  -0.010  -0.008   0.054   0.017   0.300   0.013   0.011  -0.053   0.054  -0.013  -0.011   0.000   0.003   0.001
  0.065  -0.010  -2.101  -0.069  -0.158  -0.063   0.013   1.942   0.069   0.142   0.186  -0.035  -0.018   0.111   0.111   0.001
 -0.002  -0.008  -0.069  -0.320  -0.104   0.005   0.011   0.069   0.326   0.103   0.124  -0.026   0.001   0.052  -0.017  -0.000
  0.124   0.054  -0.158  -0.104  -1.735  -0.110  -0.053   0.142   0.103   1.581  -0.070   0.010  -0.013   0.004  -0.167   0.001
 -0.061  -0.063  -0.213  -0.136   0.076   0.055   0.054   0.186   0.124  -0.070   1.438  -0.307   0.012   0.041  -0.048  -0.001
  0.013   0.014   0.035   0.022  -0.003  -0.014  -0.013  -0.035  -0.026   0.010  -0.307   0.070  -0.003  -0.007   0.011   0.000
 -0.042   0.018   0.020  -0.001   0.012   0.030  -0.011  -0.018   0.001  -0.013   0.012  -0.003   0.088   0.003   0.004  -0.006
 -0.000   0.001  -0.117  -0.068  -0.005   0.000   0.000   0.111   0.052   0.004   0.041  -0.007   0.003   0.102   0.009  -0.000
 -0.010  -0.004  -0.123   0.026   0.184   0.011   0.003   0.111  -0.017  -0.167  -0.048   0.011   0.004   0.009   0.079  -0.000
  0.005  -0.004  -0.001   0.000  -0.000  -0.002   0.001   0.001  -0.000   0.001  -0.001   0.000  -0.006  -0.000  -0.000   0.000
  0.000  -0.001   0.003   0.006  -0.000  -0.000  -0.000  -0.007  -0.003   0.000  -0.003   0.001  -0.000  -0.007  -0.001   0.000
 -0.000   0.000   0.005  -0.004  -0.007  -0.001  -0.000  -0.007   0.001   0.011   0.005  -0.001  -0.000  -0.001  -0.005   0.000


------------------------ aborting loop because EDIFF is reached ----------------------------------------


 


 total charge     
 
# of ion       s       p       d       tot
------------------------------------------
    1        0.241   0.151   9.320   9.713
    2        0.253   0.159   9.312   9.724
    3        0.239   0.147   9.323   9.709
    4        0.241   0.152   9.320   9.713
    5        0.239   0.147   9.323   9.709
    6        0.241   0.151   9.320   9.713
    7        0.241   0.151   9.320   9.713
    8        0.253   0.159   9.312   9.724
    9        1.834   1.401   0.138   3.373
   10        1.833   1.401   0.135   3.369
   11        1.833   1.401   0.135   3.369
   12        1.835   1.397   0.139   3.371
   13        1.834   1.401   0.138   3.373
   14        1.834   1.401   0.138   3.373
   15        1.835   1.398   0.139   3.371
   16        1.834   1.401   0.138   3.373
   17        1.518   2.742   0.012   4.272
   18        1.518   2.742   0.013   4.273
   19        1.518   2.742   0.011   4.271
   20        1.514   2.742   0.017   4.274
   21        1.514   2.742   0.017   4.274
   22        1.518   2.743   0.012   4.273
   23        1.518   2.742   0.011   4.271
   24        1.518   2.742   0.012   4.272
   25        1.516   2.743   0.015   4.274
   26        1.513   2.748   0.016   4.277
   27        1.514   2.743   0.015   4.272
   28        1.518   2.745   0.012   4.275
   29        1.517   2.746   0.013   4.275
   30        1.513   2.747   0.016   4.276
   31        1.515   2.743   0.015   4.272
   32        1.516   2.744   0.015   4.274
   33        1.513   2.748   0.016   4.276
   34        1.517   2.745   0.013   4.275
   35        1.516   2.743   0.015   4.274
   36        1.514   2.743   0.015   4.272
   37        1.513   2.748   0.016   4.277
   38        1.516   2.743   0.015   4.274
   39        1.517   2.745   0.013   4.275
   40        1.514   2.743   0.015   4.272
   41        1.518   2.743   0.012   4.273
   42        1.514   2.743   0.017   4.274
   43        1.518   2.742   0.012   4.272
   44        1.518   2.742   0.011   4.271
   45        1.518   2.742   0.013   4.273
   46        1.519   2.742   0.012   4.272
   47        1.514   2.742   0.017   4.274
   48        1.518   2.742   0.011   4.271
--------------------------------------------------
tot         65.137 100.212  76.093 241.442
 


--------------------------------------------------------------------------------------------------------



  FREE ENERGIE OF THE ION-ELECTRON SYSTEM (eV)
  ---------------------------------------------------
  free  energy   TOTEN  =      -119.96661495 eV

  energy  without entropy=     -119.96661495  energy(sigma->0) =     -119.96661495
 


--------------------------------------------------------------------------------------------------------




--------------------------------------------------------------------------------------------------------


 writing wavefunctions
     LOOP+:  cpu time  115.8073: real time  116.4376
    4ORBIT:  cpu time    0.0000: real time    0.0000
 


 total charge     
 
# of ion       s       p       d       tot
------------------------------------------
    1        0.241   0.151   9.320   9.713
    2        0.253   0.159   9.312   9.724
    3        0.239   0.147   9.323   9.709
    4        0.241   0.152   9.320   9.713
    5        0.239   0.147   9.323   9.709
    6        0.241   0.151   9.320   9.713
    7        0.241   0.151   9.320   9.713
    8        0.253   0.159   9.312   9.724
    9        1.834   1.401   0.138   3.373
   10        1.833   1.401   0.135   3.369
   11        1.833   1.401   0.135   3.369
   12        1.835   1.397   0.139   3.371
   13        1.834   1.401   0.138   3.373
   14        1.834   1.401   0.138   3.373
   15        1.835   1.398   0.139   3.371
   16        1.834   1.401   0.138   3.373
   17        1.518   2.742   0.012   4.272
   18        1.518   2.742   0.013   4.273
   19        1.518   2.742   0.011   4.271
   20        1.514   2.742   0.017   4.274
   21        1.514   2.742   0.017   4.274
   22        1.518   2.743   0.012   4.273
   23        1.518   2.742   0.011   4.271
   24        1.518   2.742   0.012   4.272
   25        1.516   2.743   0.015   4.274
   26        1.513   2.748   0.016   4.277
   27        1.514   2.743   0.015   4.272
   28        1.518   2.745   0.012   4.275
   29        1.517   2.746   0.013   4.275
   30        1.513   2.747   0.016   4.276
   31        1.515   2.743   0.015   4.272
   32        1.516   2.744   0.015   4.274
   33        1.513   2.748   0.016   4.276
   34        1.517   2.745   0.013   4.275
   35        1.516   2.743   0.015   4.274
   36        1.514   2.743   0.015   4.272
   37        1.513   2.748   0.016   4.277
   38        1.516   2.743   0.015   4.274
   39        1.517   2.745   0.013   4.275
   40        1.514   2.743   0.015   4.272
   41        1.518   2.743   0.012   4.273
   42        1.514   2.743   0.017   4.274
   43        1.518   2.742   0.012   4.272
   44        1.518   2.742   0.011   4.271
   45        1.518   2.742   0.013   4.273
   46        1.519   2.742   0.012   4.272
   47        1.514   2.742   0.017   4.274
   48        1.518   2.742   0.011   4.271
--------------------------------------------------
tot         65.137 100.212  76.093 241.442
 
 BZINTS: Fermi energy:    2.093016;  352.000000 electrons
         Band energy:-0.747661E+03;  BLOECHL correction:    0.000000

 total amount of memory used by VASP MPI-rank0  2761814. kBytes
=======================================================================

   base      :      30000. kBytes
   nonl-proj :     301365. kBytes
   fftplans  :      34720. kBytes
   grid      :      70000. kBytes
   one-center:        746. kBytes
   wavefun   :    2324983. kBytes
 
  
  
 General timing and accounting informations for this job:
 ========================================================
  
                  Total CPU time used (sec):      154.338
                            User time (sec):      149.474
                          System time (sec):        4.864
                         Elapsed time (sec):      156.619
  
                   Maximum memory used (kb):     4316556.
                   Average memory used (kb):           0.
  
                          Minor page faults:       415143
                          Major page faults:            0
                 Voluntary context switches:         2270
