 vasp.6.1.0 28Jan20 (build Jan 13 2021 21:44:47) complex                        
  
 executed on             LinuxIFC date 2021.09.12  19:37:18
 running on    9 total cores
 distrk:  each k-point on    1 cores,    9 groups
 distr:  one band on NCORE=   1 cores,    1 groups


--------------------------------------------------------------------------------------------------------


 INCAR:
 POTCAR:    PAW_PBE Ag 02Apr2005                  
 POTCAR:    PAW_PBE Bi 08Apr2002                  
 POTCAR:    PAW_PBE I 08Apr2002                   
 -----------------------------------------------------------------------------
|                                                                             |
|           W    W    AA    RRRRR   N    N  II  N    N   GGGG   !!!           |
|           W    W   A  A   R    R  NN   N  II  NN   N  G    G  !!!           |
|           W    W  A    A  R    R  N N  N  II  N N  N  G       !!!           |
|           W WW W  AAAAAA  RRRRR   N  N N  II  N  N N  G  GGG   !            |
|           WW  WW  A    A  R   R   N   NN  II  N   NN  G    G                |
|           W    W  A    A  R    R  N    N  II  N    N   GGGG   !!!           |
|                                                                             |
|     For optimal performance we recommend to set                             |
|       NCORE = 4 - approx SQRT(number of cores).                             |
|     NCORE specifies how many cores store one orbital (NPAR=cpu/NCORE).      |
|     This setting can greatly improve the performance of VASP for DFT.       |
|     The default, NCORE=1 might be grossly inefficient on modern             |
|     multi-core architectures or massively parallel machines. Do your        |
|     own testing!!!!                                                         |
|     Unfortunately you need to use the default for GW and RPA                |
|     calculations (for HF NCORE is supported but not extensively tested      |
|     yet).                                                                   |
|                                                                             |
 -----------------------------------------------------------------------------

 POTCAR:    PAW_PBE Ag 02Apr2005                  
   VRHFIN =Ag : s1 d10                                                                              
   LEXCH  = PE                                                                                      
   EATOM  =  1037.2675 eV,   76.2370 Ry                                                             
                                                                                                    
   TITEL  = PAW_PBE Ag 02Apr2005                                                                    
   LULTRA =        F    use ultrasoft PP ?                                                          
   IUNSCR =        1    unscreen: 0-lin 1-nonlin 2-no                                               
   RPACOR =    2.000    partial core radius                                                         
   POMASS =  107.868; ZVAL   =   11.000    mass and valenz                                          
   RCORE  =    2.500    outmost cutoff radius                                                       
   RWIGS  =    2.840; RWIGS  =    1.503    wigner-seitz radius (au A)                               
   ENMAX  =  249.844; ENMIN  =  187.383 eV                                                          
   ICORE  =        3    local potential                                                             
   LCOR   =        T    correct aug charges                                                         
   LPAW   =        T    paw PP                                                                      
   EAUG   =  412.496                                                                                
   DEXC   =    0.000                                                                                
   RMAX   =    2.560    core radius for proj-oper                                                   
   RAUG   =    1.300    factor for augmentation sphere                                              
   RDEP   =    2.576    radius for radial grids                                                     
   RDEPT  =    2.072    core radius for aug-charge                                                  
                                                                                                    
   Atomic configuration                                                                             
   12 entries                                                                                       
     n  l   j            E        occ.                                                              
     1  0  0.50    -25324.9161   2.0000                                                             
     2  0  0.50     -3728.5341   2.0000                                                             
     2  1  1.50     -3344.0404   6.0000                                                             
     3  0  0.50      -683.5581   2.0000                                                             
     3  1  1.50      -557.3225   6.0000                                                             
     3  2  2.50      -358.3853  10.0000                                                             
     4  0  0.50       -95.0341   2.0000                                                             
     4  1  1.50       -58.5511   6.0000                                                             
     4  2  2.50        -7.4440  10.0000                                                             
     5  0  0.50        -4.4045   1.0000                                                             
     5  1  0.50        -1.3606   0.0000                                                             
     4  3  2.50        -1.3606   0.0000                                                             
   Description                                                                                      
     l       E           TYP  RCUT    TYP  RCUT                                                     
     2     -7.4439781     23  2.400                                                                 
     2     -8.8045607     23  2.400                                                                 
     0     -4.4044681     23  2.400                                                                 
     0      1.9520038     23  2.400                                                                 
     1     -1.3605826     23  2.500                                                                 
     1     27.2116520     23  2.500                                                                 
     3     -4.0817478     23  2.400                                                                 
  local pseudopotential read in
  partial core-charges read in
  partial kinetic energy density read in
  atomic valenz-charges read in
  non local Contribution for L=           2  read in
    real space projection operators read in
  non local Contribution for L=           2  read in
    real space projection operators read in
  non local Contribution for L=           0  read in
    real space projection operators read in
  non local Contribution for L=           0  read in
    real space projection operators read in
  non local Contribution for L=           1  read in
    real space projection operators read in
  non local Contribution for L=           1  read in
    real space projection operators read in
    PAW grid and wavefunctions read in
 
   number of l-projection  operators is LMAX  =           6
   number of lm-projection operators is LMMAX =          18
 
 POTCAR:    PAW_PBE Bi 08Apr2002                  
   VRHFIN =Bi:                                                                                      
   LEXCH  = PE                                                                                      
   EATOM  =   150.8133 eV,   11.0845 Ry                                                             
                                                                                                    
   TITEL  = PAW_PBE Bi 08Apr2002                                                                    
   LULTRA =        F    use ultrasoft PP ?                                                          
   IUNSCR =        1    unscreen: 0-lin 1-nonlin 2-no                                               
   RPACOR =    2.200    partial core radius                                                         
   POMASS =  208.980; ZVAL   =    5.000    mass and valenz                                          
   RCORE  =    3.000    outmost cutoff radius                                                       
   RWIGS  =    3.090; RWIGS  =    1.635    wigner-seitz radius (au A)                               
   ENMAX  =  105.037; ENMIN  =   78.777 eV                                                          
   ICORE  =        3    local potential                                                             
   LCOR   =        T    correct aug charges                                                         
   LPAW   =        T    paw PP                                                                      
   EAUG   =  265.427                                                                                
   DEXC   =    0.000                                                                                
   RMAX   =    3.067    core radius for proj-oper                                                   
   RAUG   =    1.300    factor for augmentation sphere                                              
   RDEP   =    3.012    radius for radial grids                                                     
   RDEPT  =    2.604    core radius for aug-charge                                                  
                                                                                                    
   Atomic configuration                                                                             
   17 entries                                                                                       
     n  l   j            E        occ.                                                              
     1  0  0.50    -90639.6582   2.0000                                                             
     2  0  0.50    -16282.4667   2.0000                                                             
     2  1  1.50    -13922.8287   6.0000                                                             
     3  0  0.50     -3930.4763   2.0000                                                             
     3  1  1.50     -3256.7013   6.0000                                                             
     3  2  2.50     -2581.6169  10.0000                                                             
     4  0  0.50      -902.2614   2.0000                                                             
     4  1  1.50      -681.5915   6.0000                                                             
     4  2  2.50      -429.8249  10.0000                                                             
     4  3  3.50      -152.6004  14.0000                                                             
     5  0  0.50      -157.7156   2.0000                                                             
     5  1  1.50       -95.8054   6.0000                                                             
     5  2  2.50       -27.0806  10.0000                                                             
     6  0  0.50       -14.4732   2.0000                                                             
     6  1  1.50        -4.5702   3.0000                                                             
     6  2  2.50        -2.7212   0.0000                                                             
     5  3  2.50        -2.7212   0.0000                                                             
   Description                                                                                      
     l       E           TYP  RCUT    TYP  RCUT                                                     
     0    -14.4732299     23  3.000                                                                 
     0    -12.2452434     23  3.000                                                                 
     1     -4.5701666     23  3.000                                                                 
     1    -13.6058260     23  3.000                                                                 
     2     -2.7211652     23  3.000                                                                 
     3     -1.3605826      7  3.000                                                                 
  local pseudopotential read in
  partial core-charges read in
  partial kinetic energy density read in
  kinetic energy density of atom read in
  atomic valenz-charges read in
  non local Contribution for L=           0  read in
    real space projection operators read in
  non local Contribution for L=           0  read in
    real space projection operators read in
  non local Contribution for L=           1  read in
    real space projection operators read in
  non local Contribution for L=           1  read in
    real space projection operators read in
  non local Contribution for L=           2  read in
    real space projection operators read in
    PAW grid and wavefunctions read in
 
   number of l-projection  operators is LMAX  =           5
   number of lm-projection operators is LMMAX =          13
 
 POTCAR:    PAW_PBE I 08Apr2002                   
   VRHFIN =I : s2p5                                                                                 
   LEXCH  = PE                                                                                      
   EATOM  =   315.8678 eV,   23.2156 Ry                                                             
                                                                                                    
   TITEL  = PAW_PBE I 08Apr2002                                                                     
   LULTRA =        F    use ultrasoft PP ?                                                          
   IUNSCR =        1    unscreen: 0-lin 1-nonlin 2-no                                               
   RPACOR =    2.200    partial core radius                                                         
   POMASS =  126.904; ZVAL   =    7.000    mass and valenz                                          
   RCORE  =    2.300    outmost cutoff radius                                                       
   RWIGS  =    2.810; RWIGS  =    1.487    wigner-seitz radius (au A)                               
   ENMAX  =  175.647; ENMIN  =  131.735 eV                                                          
   ICORE  =        3    local potential                                                             
   LCOR   =        T    correct aug charges                                                         
   LPAW   =        T    paw PP                                                                      
   EAUG   =  370.139                                                                                
   DEXC   =    0.000                                                                                
   RMAX   =    2.359    core radius for proj-oper                                                   
   RAUG   =    1.300    factor for augmentation sphere                                              
   RDEP   =    2.392    radius for radial grids                                                     
   RDEPT  =    2.170    core radius for aug-charge                                                  
                                                                                                    
   Atomic configuration                                                                             
   13 entries                                                                                       
     n  l   j            E        occ.                                                              
     1  0  0.50    -32976.3739   2.0000                                                             
     2  0  0.50     -5094.5933   2.0000                                                             
     2  1  1.50     -4572.0131   6.0000                                                             
     3  0  0.50     -1028.2813   2.0000                                                             
     3  1  1.50      -859.0250   6.0000                                                             
     3  2  2.50      -605.7620  10.0000                                                             
     4  0  0.50      -180.5540   2.0000                                                             
     4  1  1.50      -127.5306   6.0000                                                             
     4  2  2.50       -50.2720  10.0000                                                             
     5  0  0.50       -17.4058   2.0000                                                             
     5  1  0.50        -7.0851   5.0000                                                             
     5  2  1.50        -7.0750   0.0000                                                             
     4  3  2.50        -7.0750   0.0000                                                             
   Description                                                                                      
     l       E           TYP  RCUT    TYP  RCUT                                                     
     0    -17.4058016     23  2.300                                                                 
     0    -18.7663842     23  2.300                                                                 
     1     -7.0850686     23  2.300                                                                 
     1     -4.2150896     23  2.300                                                                 
     2     -7.0750295     23  2.300                                                                 
     3     -1.3605826     23  2.300                                                                 
  local pseudopotential read in
  partial core-charges read in
  partial kinetic energy density read in
  atomic valenz-charges read in
  non local Contribution for L=           0  read in
    real space projection operators read in
  non local Contribution for L=           0  read in
    real space projection operators read in
  non local Contribution for L=           1  read in
    real space projection operators read in
  non local Contribution for L=           1  read in
    real space projection operators read in
  non local Contribution for L=           2  read in
    real space projection operators read in
    PAW grid and wavefunctions read in
 
   number of l-projection  operators is LMAX  =           5
   number of lm-projection operators is LMMAX =          13
 
 -----------------------------------------------------------------------------
|                                                                             |
|               ----> ADVICE to this user running VASP <----                  |
|                                                                             |
|     You have a (more or less) 'large supercell' and for larger cells it     |
|     might be more efficient to use real-space projection operators.         |
|     Therefore, try LREAL= Auto in the INCAR file.                           |
|     Mind: For very accurate calculation, you might also keep the            |
|     reciprocal projection scheme (i.e. LREAL=.FALSE.).                      |
|                                                                             |
 -----------------------------------------------------------------------------

  PAW_PBE Ag 02Apr2005                  :
 energy of atom  1       EATOM=-1037.2675
 kinetic energy error for atom=    0.0686 (will be added to EATOM!!)
  PAW_PBE Bi 08Apr2002                  :
 energy of atom  2       EATOM= -150.8133
 kinetic energy error for atom=    0.0004 (will be added to EATOM!!)
  PAW_PBE I 08Apr2002                   :
 energy of atom  3       EATOM= -315.8678
 kinetic energy error for atom=    0.0044 (will be added to EATOM!!)
 
 
 POSCAR: Generation Seed Number
  positions in direct lattice
  velocities in cartesian coordinates
 exchange correlation table for  LEXCH =        8
   RHO(1)=    0.500       N(1)  =     2000
   RHO(2)=  100.500       N(2)  =     4000
 


--------------------------------------------------------------------------------------------------------


 ion  position               nearest neighbor table
   1  0.975  1.000  0.025-  25 2.96  27 2.96  33 2.97  21 2.97
   2  0.745  0.775  0.013-  47 2.94  21 2.98  31 3.06  27 3.11  48 3.22  23 3.59
   3  0.988  0.225  0.255-  45 2.94  33 2.98  26 3.06  25 3.12  41 3.21  35 3.58
   4  0.502  0.753  0.253-  47 3.02  32 3.03  43 3.06  31 3.09  37 3.23  39 3.31
   5  0.505  0.275  0.740-  30 2.94  40 2.98  46 3.08  29 3.14  42 3.16  38 3.58
   6  0.276  0.500  0.724-  44 2.95  42 2.95  20 2.96  40 2.96
   7  0.747  0.249  0.498-  45 3.02  30 3.04  46 3.06  26 3.09  22 3.25  24 3.29
   8  0.260  0.725  0.494-  32 2.94  20 2.98  43 3.08  28 3.14  44 3.17  18 3.58
   9  0.248  0.250  0.998-  42 3.07  25 3.08  19 3.13  17 3.14  41 3.18  29 3.18
  10  0.502  0.504  0.999-  31 3.03  40 3.06  23 3.12  19 3.14  39 3.20  29 3.20
  11  0.001  0.496  0.498-  26 3.03  20 3.06  35 3.12  36 3.14  24 3.20  28 3.20
  12  0.002  0.749  0.752-  44 3.07  27 3.08  36 3.13  34 3.14  48 3.18  28 3.18
  13  0.249  0.997  0.251-  43 3.04  33 3.06  18 3.13  17 3.14  41 3.19  37 3.20
  14  0.499  1.000  0.501-  30 3.11  32 3.11  22 3.12  37 3.12  38 3.13  18 3.14
  15  0.749  0.003  0.751-  46 3.04  21 3.06  38 3.13  34 3.14  48 3.19  22 3.20
  16  0.749  0.500  0.251-  39 3.11  24 3.11  45 3.11  47 3.11  23 3.14  35 3.14
  17  0.260  0.004  0.005-  13 3.14   9 3.14
  18  0.253  0.006  0.497-  13 3.13  14 3.14   8 3.58
  19  0.255  0.496  0.011-   9 3.13  10 3.14
  20  0.241  0.491  0.494-   6 2.96   8 2.98  11 3.06
  21  0.744  0.008  0.991-   1 2.97   2 2.98  15 3.06
  22  0.744  0.993  0.499-  14 3.12  15 3.20   7 3.25
  23  0.747  0.493  0.004-  10 3.12  16 3.14   2 3.59
  24  0.750  0.507  0.495-  16 3.11  11 3.20   7 3.29
  25  0.008  0.230  0.011-   1 2.96   9 3.08   3 3.12
  26  0.989  0.258  0.493-  11 3.03   3 3.06   7 3.09
  27  0.989  0.770  0.992-   1 2.96  12 3.08   2 3.11
  28  0.014  0.747  0.502-   8 3.14  12 3.18  11 3.20
  29  0.498  0.253  0.986-   5 3.14   9 3.18  10 3.20
  30  0.509  0.244  0.511-   5 2.94   7 3.04  14 3.11
  31  0.507  0.742  0.011-  10 3.03   2 3.06   4 3.09
  32  0.488  0.756  0.491-   8 2.94   4 3.03  14 3.11
  33  0.009  0.992  0.255-   1 2.97   3 2.98  13 3.06
  34  0.995  0.996  0.740-  15 3.14  12 3.14
  35  0.996  0.506  0.253-  11 3.12  16 3.14   3 3.58
  36  0.989  0.504  0.745-  12 3.13  11 3.14
  37  0.500  0.007  0.256-  14 3.12  13 3.20   4 3.23
  38  0.503  0.993  0.747-  15 3.13  14 3.13   5 3.58
  39  0.505  0.493  0.250-  16 3.11  10 3.20   4 3.31
  40  0.506  0.508  0.759-   6 2.96   5 2.98  10 3.06
  41  0.239  0.247  0.248-   9 3.18  13 3.19   3 3.21
  42  0.258  0.271  0.758-   6 2.95   9 3.07   5 3.16
  43  0.262  0.758  0.255-  13 3.04   4 3.06   8 3.08
  44  0.242  0.729  0.742-   6 2.95  12 3.07   8 3.17
  45  0.759  0.256  0.261-   3 2.94   7 3.02  16 3.11
  46  0.745  0.242  0.738-  15 3.04   7 3.06   5 3.08
  47  0.739  0.744  0.242-   2 2.94   4 3.02  16 3.11
  48  0.752  0.753  0.761-  12 3.18  15 3.19   2 3.22
 
 -----------------------------------------------------------------------------
|                                                                             |
|           W    W    AA    RRRRR   N    N  II  N    N   GGGG   !!!           |
|           W    W   A  A   R    R  NN   N  II  NN   N  G    G  !!!           |
|           W    W  A    A  R    R  N N  N  II  N N  N  G       !!!           |
|           W WW W  AAAAAA  RRRRR   N  N N  II  N  N N  G  GGG   !            |
|           WW  WW  A    A  R   R   N   NN  II  N   NN  G    G                |
|           W    W  A    A  R    R  N    N  II  N    N   GGGG   !!!           |
|                                                                             |
|     The determination of the symmetry of your systems shows a strong        |
|     dependence on the tolerance parameter SYMPREC. This is often the        |
|     result of "noise" in the structural parameters (lattice vectors         |
|     and/or ionic positions). Set NWRITE=3 for more details.                 |
|                                                                             |
 -----------------------------------------------------------------------------

  LATTYP: Found a triclinic cell.
 ALAT       =    12.7262866421
 B/A-ratio  =     1.4141895683
 C/A-ratio  =     1.0001089697
 COS(alpha) =     0.0000114118
 COS(beta)  =     0.0001665724
 COS(gamma) =     0.7070001160
  
  Lattice vectors:
  
 A1 = (  12.7262865465,   0.0010107731,   0.0011877914)
 A2 = (  12.7253389431,   0.0002543124, -12.7268024583)
 A3 = (   0.0011090872,  12.7276733204,   0.0011578928)


Analysis of symmetry for initial positions (statically):
=====================================================================
 Subroutine PRICEL returns:
 Original cell was already a primitive cell.
 

 Routine SETGRP: Setting up the symmetry group for a 
 triclinic supercell.


 Subroutine GETGRP returns: Found  1 space group operations
 (whereof  1 operations were pure point group operations)
 out of a pool of  2 trial point group operations.


The static configuration has the point symmetry C_1 .


Analysis of symmetry for dynamics (positions and initial velocities):
=====================================================================
 Subroutine PRICEL returns:
 Original cell was already a primitive cell.
 

 Routine SETGRP: Setting up the symmetry group for a 
 triclinic supercell.


 Subroutine GETGRP returns: Found  1 space group operations
 (whereof  1 operations were pure point group operations)
 out of a pool of  2 trial point group operations.


The dynamic configuration has the point symmetry C_1 .


 Subroutine INISYM returns: Found  1 space group operations
 (whereof  1 operations are pure point group operations),
 and found     1 'primitive' translations


----------------------------------------------------------------------------------------

                                     Primitive cell                                     

  volume of cell :    2061.6291

  direct lattice vectors                    reciprocal lattice vectors
    12.726286547  0.001010773  0.001187791     0.078577518 -0.000006847 -0.000005850
     0.001109087 12.727673320  0.001157893    -0.000006240  0.078568957 -0.000004669
     0.000947603  0.000756461 12.727990250    -0.000007332 -0.000007147  0.078567000

  length of vectors
    12.726286642 12.727673421 12.727990307     0.078577519  0.078568957  0.078567001

  position of ions in fractional coordinates (direct lattice)
     0.975215857  0.999963245  0.024697665
     0.745254917  0.774843772  0.012742691
     0.987621096  0.225087464  0.254936397
     0.502299543  0.752767158  0.252981062
     0.505459998  0.274764841  0.740123196
     0.275716567  0.499978175  0.724377164
     0.746915547  0.248521118  0.497960716
     0.259586493  0.725089471  0.494285383
     0.248172907  0.250298333  0.998326666
     0.501823989  0.503840889  0.998993469
     0.001197303  0.495836662  0.498265832
     0.001760830  0.749469397  0.751843002
     0.249181510  0.996543306  0.251183869
     0.499435504  0.999832021  0.500581240
     0.748760935  0.003159711  0.750630347
     0.749319634  0.499839350  0.250676318
     0.259808005  0.003848709  0.004763481
     0.253186402  0.006475838  0.496647002
     0.255204022  0.496146784  0.010962646
     0.241362589  0.491370226  0.494290440
     0.744443980  0.007856972  0.990790273
     0.744351955  0.992976237  0.499496759
     0.747034609  0.493237511  0.003871400
     0.749914690  0.506603078  0.494889628
     0.007595982  0.229884458  0.010767468
     0.989459022  0.258091243  0.493063540
     0.989063030  0.769962613  0.992386765
     0.014264945  0.747006337  0.502025370
     0.497994057  0.252732246  0.985994005
     0.508835002  0.243958398  0.511428536
     0.507195956  0.741656691  0.010636600
     0.488260868  0.755660507  0.490949160
     0.009056947  0.991953700  0.255423037
     0.995170214  0.995943950  0.739988501
     0.996286963  0.506431577  0.253155144
     0.989170321  0.503648791  0.744914949
     0.500471519  0.006677546  0.255547549
     0.503202632  0.993249489  0.746688044
     0.505223604  0.492924067  0.250141950
     0.505884643  0.508315064  0.758808305
     0.239011913  0.246725048  0.247990638
     0.257883514  0.271130130  0.758081954
     0.261843804  0.758278539  0.254801702
     0.242028320  0.728736372  0.742351076
     0.758728419  0.255648316  0.261295853
     0.744842850  0.241522246  0.738019968
     0.738863283  0.744073584  0.241520832
     0.752067063  0.753081473  0.760829784

  ion indices of the primitive-cell ions
   primitive index   ion index
                 1           1
                 2           2
                 3           3
                 4           4
                 5           5
                 6           6
                 7           7
                 8           8
                 9           9
                10          10
                11          11
                12          12
                13          13
                14          14
                15          15
                16          16
                17          17
                18          18
                19          19
                20          20
                21          21
                22          22
                23          23
                24          24
                25          25
                26          26
                27          27
                28          28
                29          29
                30          30
                31          31
                32          32
                33          33
                34          34
                35          35
                36          36
                37          37
                38          38
                39          39
                40          40
                41          41
                42          42
                43          43
                44          44
                45          45
                46          46
                47          47
                48          48

----------------------------------------------------------------------------------------

 
 
 KPOINTS: agbii                                   

Automatic generation of k-mesh.
Space group operators:
 irot       det(A)        alpha          n_x          n_y          n_z        tau_x        tau_y        tau_z
    1     1.000000     0.000000     1.000000     0.000000     0.000000     0.000000     0.000000     0.000000
 TETIRR: Found    192 inequivalent tetrahedra from      384
 
 Subroutine IBZKPT returns following result:
 ===========================================
 
 Found     36 irreducible k-points:
 
 Following reciprocal coordinates:
            Coordinates               Weight
  0.000000  0.000000  0.000000      1.000000
  0.250000  0.000000  0.000000      2.000000
  0.500000  0.000000 -0.000000      1.000000
  0.000000  0.250000  0.000000      2.000000
  0.250000  0.250000  0.000000      2.000000
  0.500000  0.250000 -0.000000      2.000000
 -0.250000  0.250000 -0.000000      2.000000
  0.000000  0.500000  0.000000      1.000000
  0.250000  0.500000  0.000000      2.000000
  0.500000  0.500000 -0.000000      1.000000
  0.000000  0.000000  0.250000      2.000000
  0.250000  0.000000  0.250000      2.000000
  0.500000  0.000000  0.250000      2.000000
 -0.250000 -0.000000  0.250000      2.000000
  0.000000  0.250000  0.250000      2.000000
  0.250000  0.250000  0.250000      2.000000
  0.500000  0.250000  0.250000      2.000000
 -0.250000  0.250000  0.250000      2.000000
  0.000000  0.500000  0.250000      2.000000
  0.250000  0.500000  0.250000      2.000000
  0.500000  0.500000  0.250000      2.000000
 -0.250000  0.500000  0.250000      2.000000
 -0.000000 -0.250000  0.250000      2.000000
  0.250000 -0.250000  0.250000      2.000000
  0.500000 -0.250000  0.250000      2.000000
 -0.250000 -0.250000  0.250000      2.000000
  0.000000  0.000000  0.500000      1.000000
  0.250000 -0.000000  0.500000      2.000000
  0.500000  0.000000  0.500000      1.000000
 -0.000000  0.250000  0.500000      2.000000
  0.250000  0.250000  0.500000      2.000000
  0.500000  0.250000  0.500000      2.000000
 -0.250000  0.250000  0.500000      2.000000
  0.000000  0.500000  0.500000      1.000000
  0.250000  0.500000  0.500000      2.000000
  0.500000  0.500000  0.500000      1.000000
 
 Following cartesian coordinates:
            Coordinates               Weight
  0.000000  0.000000  0.000000      1.000000
  0.019644 -0.000002 -0.000001      2.000000
  0.039289 -0.000003 -0.000003      1.000000
 -0.000002  0.019642 -0.000001      2.000000
  0.019643  0.019641 -0.000003      2.000000
  0.039287  0.019639 -0.000004      2.000000
 -0.019646  0.019644  0.000000      2.000000
 -0.000003  0.039284 -0.000002      1.000000
  0.019641  0.039283 -0.000004      2.000000
  0.039286  0.039281 -0.000005      1.000000
 -0.000002 -0.000002  0.019642      2.000000
  0.019643 -0.000003  0.019640      2.000000
  0.039287 -0.000005  0.019639      2.000000
 -0.019646 -0.000000  0.019643      2.000000
 -0.000003  0.019640  0.019641      2.000000
  0.019641  0.019639  0.019639      2.000000
  0.039285  0.019637  0.019638      2.000000
 -0.019648  0.019642  0.019642      2.000000
 -0.000005  0.039283  0.019639      2.000000
  0.019639  0.039281  0.019638      2.000000
  0.039284  0.039279  0.019636      2.000000
 -0.019649  0.039284  0.019641      2.000000
 -0.000000 -0.019644  0.019643      2.000000
  0.019644 -0.019646  0.019641      2.000000
  0.039288 -0.019647  0.019640      2.000000
 -0.019645 -0.019642  0.019644      2.000000
 -0.000004 -0.000004  0.039284      1.000000
  0.019641 -0.000005  0.039282      2.000000
  0.039285 -0.000007  0.039281      1.000000
 -0.000005  0.019639  0.039282      2.000000
  0.019639  0.019637  0.039281      2.000000
  0.039284  0.019635  0.039279      2.000000
 -0.019650  0.019640  0.039284      2.000000
 -0.000007  0.039281  0.039281      1.000000
  0.019638  0.039279  0.039280      2.000000
  0.039282  0.039277  0.039278      1.000000
 


--------------------------------------------------------------------------------------------------------




 Dimension of arrays:
   k-points           NKPTS =     36   k-points in BZ     NKDIM =     36   number of bands    NBANDS=    211
   number of dos      NEDOS =   3000   number of ions     NIONS =     48
   non local maximal  LDIM  =      6   non local SUM 2l+1 LMDIM =     18
   total plane-waves  NPLWV = 125000
   max r-space proj   IRMAX =      1   max aug-charges    IRDMAX=   5974
   dimension x,y,z NGX =    50 NGY =   50 NGZ =   50
   dimension x,y,z NGXF=   100 NGYF=  100 NGZF=  100
   support grid    NGXF=   100 NGYF=  100 NGZF=  100
   ions per type =               8   8  32
   NGX,Y,Z   is equivalent  to a cutoff of   6.53,  6.53,  6.53 a.u.
   NGXF,Y,Z  is equivalent  to a cutoff of  13.06, 13.06, 13.06 a.u.

 SYSTEM =  unknown system                          
 POSCAR =  Generation Seed Number                  

 Startparameter for this run:
   NWRITE =      2    write-flag & timer
   PREC   = normal    normal or accurate (medium, high low for compatibility)
   ISTART =      1    job   : 0-new  1-cont  2-samecut
   ICHARG =      1    charge: 1-file 2-atom 10-const
   ISPIN  =      1    spin polarized calculation?
   LNONCOLLINEAR =      F non collinear calculations
   LSORBIT =      F    spin-orbit coupling
   INIWAV =      1    electr: 0-lowe 1-rand  2-diag
   LASPH  =      F    aspherical Exc in radial PAW
   METAGGA=      F    non-selfconsistent MetaGGA calc.

 Electronic Relaxation 1
   ENCUT  =  250.0 eV  18.37 Ry    4.29 a.u.  16.41 16.41 16.41*2*pi/ulx,y,z
   ENINI  =  250.0     initial cutoff
   ENAUG  =  412.5 eV  augmentation charge cutoff
   NELM   =     60;   NELMIN=  2; NELMDL=  0     # of ELM steps 
   EDIFF  = 0.1E-05   stopping-criterion for ELM
   LREAL  =      F    real-space projection
   NLSPLINE    = F    spline interpolate recip. space projectors
   LCOMPAT=      F    compatible to vasp.4.4
   GGA_COMPAT  = T    GGA compatible to vasp.4.4-vasp.4.6
   LMAXPAW     = -100 max onsite density
   LMAXMIX     =    4 max onsite mixed and CHGCAR
   VOSKOWN=      0    Vosko Wilk Nusair interpolation
   ROPT   =    0.00000   0.00000   0.00000
 Ionic relaxation
   EDIFFG = -.1E-01   stopping-criterion for IOM
   NSW    =      0    number of steps for IOM
   NBLOCK =      1;   KBLOCK =      1    inner block; outer block 
   IBRION =     -1    ionic relax: 0-MD 1-quasi-New 2-CG
   NFREE  =      0    steps in history (QN), initial steepest desc. (CG)
   ISIF   =     -1    stress and relaxation
   IWAVPR =     10    prediction:  0-non 1-charg 2-wave 3-comb
   ISYM   =      2    0-nonsym 1-usesym 2-fastsym
   LCORR  =      T    Harris-Foulkes like correction to forces

   POTIM  = 0.5000    time-step for ionic-motion
   TEIN   =    0.0    initial temperature
   TEBEG  =    0.0;   TEEND  =   0.0 temperature during run
   SMASS  =  -3.00    Nose mass-parameter (am)
   estimated Nose-frequenzy (Omega)   =  0.10E-29 period in steps = 0.13E+47 mass=  -0.370E-26a.u.
   SCALEE = 1.0000    scale energy and forces
   NPACO  =    256;   APACO  = 16.0  distance and # of slots for P.C.
   PSTRESS=    0.0 pullay stress

  Mass of Ions in am
   POMASS = 107.87208.98126.90
  Ionic Valenz
   ZVAL   =  11.00  5.00  7.00
  Atomic Wigner-Seitz radii
   RWIGS  =  -1.00 -1.00 -1.00
  virtual crystal weights 
   VCA    =   1.00  1.00  1.00
   NELECT =     352.0000    total number of electrons
   NUPDOWN=      -1.0000    fix difference up-down

 DOS related values:
   EMIN   =  10.00;   EMAX   =-10.00  energy-range for DOS
   EFERMI =   0.00
   ISMEAR =    -5;   SIGMA  =   0.20  broadening in eV -4-tet -1-fermi 0-gaus

 Electronic relaxation 2 (details)
   IALGO  =     38    algorithm
   LDIAG  =      T    sub-space diagonalisation (order eigenvalues)
   LSUBROT=      F    optimize rotation matrix (better conditioning)
   TURBO    =      0    0=normal 1=particle mesh
   IRESTART =      0    0=no restart 2=restart with 2 vectors
   NREBOOT  =      0    no. of reboots
   NMIN     =      0    reboot dimension
   EREF     =   0.00    reference energy to select bands
   IMIX   =      4    mixing-type and parameters
     AMIX     =   0.40;   BMIX     =  1.00
     AMIX_MAG =   1.60;   BMIX_MAG =  1.00
     AMIN     =   0.10
     WC   =   100.;   INIMIX=   1;  MIXPRE=   1;  MAXMIX= -45

 Intra band minimization:
   WEIMIN = 0.0000     energy-eigenvalue tresh-hold
   EBREAK =  0.12E-08  absolut break condition
   DEPER  =   0.30     relativ break condition  

   TIME   =   0.40     timestep for ELM

  volume/ion in A,a.u.               =      42.95       289.85
  Fermi-wavevector in a.u.,A,eV,Ry     =   0.908208  1.716265 11.222665  0.824843
  Thomas-Fermi vector in A             =   2.032107
 
 Write flags
   LWAVE        =      T    write WAVECAR
   LDOWNSAMPLE  =      F    k-point downsampling of WAVECAR
   LCHARG       =      T    write CHGCAR
   LVTOT        =      F    write LOCPOT, total local potential
   LVHAR        =      F    write LOCPOT, Hartree potential only
   LELF         =      F    write electronic localiz. function (ELF)
   LORBIT       =     10    0 simple, 1 ext, 2 COOP (PROOUT), +10 PAW based schemes


 Dipole corrections
   LMONO  =      F    monopole corrections only (constant potential shift)
   LDIPOL =      F    correct potential (dipole corrections)
   IDIPOL =      0    1-x, 2-y, 3-z, 4-all directions 
   EPSILON=  1.0000000 bulk dielectric constant

 Exchange correlation treatment:
   GGA     =    --    GGA type
   LEXCH   =     8    internal setting for exchange type
   VOSKOWN=      0    Vosko Wilk Nusair interpolation
   LHFCALC =     F    Hartree Fock is set to
   LHFONE  =     F    Hartree Fock one center treatment
   AEXX    =    0.0000 exact exchange contribution

 Linear response parameters
   LEPSILON=     F    determine dielectric tensor
   LRPA    =     F    only Hartree local field effects (RPA)
   LNABLA  =     F    use nabla operator in PAW spheres
   LVEL    =     F    velocity operator in full k-point grid
   LINTERFAST=   F  fast interpolation
   KINTER  =     0    interpolate to denser k-point grid
   CSHIFT  =0.1000    complex shift for real part using Kramers Kronig
   OMEGAMAX=  -1.0    maximum frequency
   DEG_THRESHOLD= 0.2000000E-02 threshold for treating states as degnerate
   RTIME   =   -0.100 relaxation time in fs
  (WPLASMAI=    0.000 imaginary part of plasma frequency in eV, 0.658/RTIME)
   DFIELD  = 0.0000000 0.0000000 0.0000000 field for delta impulse in time
 
 Orbital magnetization related:
   ORBITALMAG=     F  switch on orbital magnetization
   LCHIMAG   =     F  perturbation theory with respect to B field
   DQ        =  0.001000  dq finite difference perturbation B field
   LLRAUG    =     F  two centre corrections for induced B field



--------------------------------------------------------------------------------------------------------


 Static calculation
 charge density and potential will be updated during run
 non-spin polarized calculation
 Variant of blocked Davidson
 Davidson routine will perform the subspace rotation
 perform sub-space diagonalisation
    after iterative eigenvector-optimisation
 modified Broyden-mixing scheme, WC =      100.0
 initial mixing is a Kerker type mixing with AMIX =  0.4000 and BMIX =      1.0000
 Hartree-type preconditioning will be used
 using additional bands           35
 reciprocal scheme for non local part
 use partial core corrections
 calculate Harris-corrections to forces 
   (improved forces if not selfconsistent)
 use gradient corrections 
 use of overlap-Matrix (Vanderbilt PP)
 Fermi weights with tetrahedron method with Bloechl corrections


--------------------------------------------------------------------------------------------------------


  energy-cutoff  :      250.00
  volume of cell :     2061.63
      direct lattice vectors                 reciprocal lattice vectors
    12.726286547  0.001010773  0.001187791     0.078577518 -0.000006847 -0.000005850
     0.001109087 12.727673320  0.001157893    -0.000006240  0.078568957 -0.000004669
     0.000947603  0.000756461 12.727990250    -0.000007332 -0.000007147  0.078567000

  length of vectors
    12.726286642 12.727673421 12.727990307     0.078577519  0.078568957  0.078567001


 
 old parameters found on file WAVECAR:
  energy-cutoff  :      250.00
  volume of cell :     2061.63
      direct lattice vectors                 reciprocal lattice vectors
    12.726286547  0.001010773  0.001187791     0.078577518 -0.000006847 -0.000005850
     0.001109087 12.727673320  0.001157893    -0.000006240  0.078568957 -0.000004669
     0.000947603  0.000756461 12.727990250    -0.000007332 -0.000007147  0.078567000

  length of vectors

 
 k-points in units of 2pi/SCALE and weight: agbii                                   
   0.00000000  0.00000000  0.00000000       0.016
   0.01964438 -0.00000171 -0.00000146       0.031
   0.03928876 -0.00000342 -0.00000292       0.016
  -0.00000156  0.01964224 -0.00000117       0.031
   0.01964282  0.01964053 -0.00000263       0.031
   0.03928720  0.01963882 -0.00000409       0.031
  -0.01964594  0.01964395  0.00000030       0.031
  -0.00000312  0.03928448 -0.00000233       0.016
   0.01964126  0.03928277 -0.00000380       0.031
   0.03928564  0.03928105 -0.00000526       0.016
  -0.00000183 -0.00000179  0.01964175       0.031
   0.01964255 -0.00000350  0.01964029       0.031
   0.03928693 -0.00000521  0.01963883       0.031
  -0.01964621 -0.00000008  0.01964321       0.031
  -0.00000339  0.01964045  0.01964058       0.031
   0.01964099  0.01963874  0.01963912       0.031
   0.03928537  0.01963703  0.01963766       0.031
  -0.01964777  0.01964216  0.01964205       0.031
  -0.00000495  0.03928269  0.01963942       0.031
   0.01963943  0.03928098  0.01963795       0.031
   0.03928381  0.03927927  0.01963649       0.031
  -0.01964933  0.03928440  0.01964088       0.031
  -0.00000027 -0.01964403  0.01964292       0.031
   0.01964411 -0.01964574  0.01964145       0.031
   0.03928849 -0.01964745  0.01963999       0.031
  -0.01964465 -0.01964231  0.01964438       0.031
  -0.00000367 -0.00000357  0.03928350       0.016
   0.01964071 -0.00000529  0.03928204       0.031
   0.03928509 -0.00000700  0.03928058       0.016
  -0.00000523  0.01963867  0.03928233       0.031
   0.01963915  0.01963695  0.03928087       0.031
   0.03928353  0.01963524  0.03927941       0.031
  -0.01964961  0.01964038  0.03928380       0.031
  -0.00000679  0.03928090  0.03928117       0.016
   0.01963759  0.03927919  0.03927970       0.031
   0.03928197  0.03927748  0.03927824       0.016
 
 k-points in reciprocal lattice and weights: agbii                                   
   0.00000000  0.00000000  0.00000000       0.016
   0.25000000  0.00000000  0.00000000       0.031
   0.50000000  0.00000000 -0.00000000       0.016
   0.00000000  0.25000000  0.00000000       0.031
   0.25000000  0.25000000  0.00000000       0.031
   0.50000000  0.25000000 -0.00000000       0.031
  -0.25000000  0.25000000 -0.00000000       0.031
   0.00000000  0.50000000  0.00000000       0.016
   0.25000000  0.50000000  0.00000000       0.031
   0.50000000  0.50000000 -0.00000000       0.016
   0.00000000  0.00000000  0.25000000       0.031
   0.25000000  0.00000000  0.25000000       0.031
   0.50000000  0.00000000  0.25000000       0.031
  -0.25000000 -0.00000000  0.25000000       0.031
   0.00000000  0.25000000  0.25000000       0.031
   0.25000000  0.25000000  0.25000000       0.031
   0.50000000  0.25000000  0.25000000       0.031
  -0.25000000  0.25000000  0.25000000       0.031
   0.00000000  0.50000000  0.25000000       0.031
   0.25000000  0.50000000  0.25000000       0.031
   0.50000000  0.50000000  0.25000000       0.031
  -0.25000000  0.50000000  0.25000000       0.031
  -0.00000000 -0.25000000  0.25000000       0.031
   0.25000000 -0.25000000  0.25000000       0.031
   0.50000000 -0.25000000  0.25000000       0.031
  -0.25000000 -0.25000000  0.25000000       0.031
   0.00000000  0.00000000  0.50000000       0.016
   0.25000000 -0.00000000  0.50000000       0.031
   0.50000000  0.00000000  0.50000000       0.016
  -0.00000000  0.25000000  0.50000000       0.031
   0.25000000  0.25000000  0.50000000       0.031
   0.50000000  0.25000000  0.50000000       0.031
  -0.25000000  0.25000000  0.50000000       0.031
   0.00000000  0.50000000  0.50000000       0.016
   0.25000000  0.50000000  0.50000000       0.031
   0.50000000  0.50000000  0.50000000       0.016
 
 position of ions in fractional coordinates (direct lattice) 
   0.97521586  0.99996325  0.02469767
   0.74525492  0.77484377  0.01274269
   0.98762110  0.22508746  0.25493640
   0.50229954  0.75276716  0.25298106
   0.50546000  0.27476484  0.74012320
   0.27571657  0.49997817  0.72437716
   0.74691555  0.24852112  0.49796072
   0.25958649  0.72508947  0.49428538
   0.24817291  0.25029833  0.99832667
   0.50182399  0.50384089  0.99899347
   0.00119730  0.49583666  0.49826583
   0.00176083  0.74946940  0.75184300
   0.24918151  0.99654331  0.25118387
   0.49943550  0.99983202  0.50058124
   0.74876093  0.00315971  0.75063035
   0.74931963  0.49983935  0.25067632
   0.25980801  0.00384871  0.00476348
   0.25318640  0.00647584  0.49664700
   0.25520402  0.49614678  0.01096265
   0.24136259  0.49137023  0.49429044
   0.74444398  0.00785697  0.99079027
   0.74435195  0.99297624  0.49949676
   0.74703461  0.49323751  0.00387140
   0.74991469  0.50660308  0.49488963
   0.00759598  0.22988446  0.01076747
   0.98945902  0.25809124  0.49306354
   0.98906303  0.76996261  0.99238677
   0.01426494  0.74700634  0.50202537
   0.49799406  0.25273225  0.98599400
   0.50883500  0.24395840  0.51142854
   0.50719596  0.74165669  0.01063660
   0.48826087  0.75566051  0.49094916
   0.00905695  0.99195370  0.25542304
   0.99517021  0.99594395  0.73998850
   0.99628696  0.50643158  0.25315514
   0.98917032  0.50364879  0.74491495
   0.50047152  0.00667755  0.25554755
   0.50320263  0.99324949  0.74668804
   0.50522360  0.49292407  0.25014195
   0.50588464  0.50831506  0.75880831
   0.23901191  0.24672505  0.24799064
   0.25788351  0.27113013  0.75808195
   0.26184380  0.75827854  0.25480170
   0.24202832  0.72873637  0.74235108
   0.75872842  0.25564832  0.26129585
   0.74484285  0.24152225  0.73801997
   0.73886328  0.74407358  0.24152083
   0.75206706  0.75308147  0.76082978
 
 position of ions in cartesian coordinates  (Angst):
  12.41200889 12.72820992  0.31666785
   9.48519907  9.86272133  0.16397124
  12.56924029  2.86603083  3.24626169
   6.39348252  9.58167356  3.22140874
   6.43363486  3.49818791  9.42119935
   3.51008898  6.36438553  9.22077189
   9.50620878  3.16422726  6.33921409
   3.30484466  9.22933820  6.29240745
   3.15954315  3.18672145 12.70727666
   6.38786134  6.41398516 12.71635859
   0.01625930  6.31122519  6.34249820
   0.02395250  9.53957216  9.57032030
   3.17249857 12.68411953  3.19851570
   6.35754258 12.72641882  6.37314407
   9.52966102  0.04154042  9.55490877
   9.53684829  6.36273898  3.19207453
   3.30639991  0.04925133  0.06094260
   3.22260051  0.08305396  6.32162643
   3.24836018  6.31506043  0.14041007
   3.07266283  6.25461760  6.29217954
   9.47495500  0.10150293 12.61166228
   9.47441089 12.63940738  6.35962378
   9.50752720  6.27852392  0.05073358
   9.54466005  6.44901084  6.30042769
   0.09693381  2.92591010  0.13732343
  12.59289251  3.28627413  6.27718204
  12.58889387  9.80158303 12.63315541
   0.18284399  9.50804680  6.39065591
   6.33882971  3.21794269 12.55060623
   6.47633524  3.10592399  6.51034428
   6.45555371  9.44008479  0.13684374
   6.21505103  9.61866498  6.25025105
   0.11660350 12.62546501  3.25218126
  12.66662712 12.67761490  9.42090168
  12.67983494  6.44689420  3.22392598
  12.58972942  6.41184061  9.48302831
   6.36939353  0.08568880  3.25320890
   6.40571005 12.64282849  9.50558592
   6.43040409  6.27447638  3.18497515
   6.43931574  6.47075342  9.65929417
   3.04224273  3.14066500  3.15699200
   3.28291857  3.45168984  9.64947997
   3.33338173  9.65157895  3.24430260
   3.08163344  9.27592468  9.44976854
   9.65632642  3.25477281  3.32696829
   9.48005077  3.07532740  9.39467533
   9.40403997  9.47125503  3.07581396
   9.57257714  9.58631068  9.68559936
 


--------------------------------------------------------------------------------------------------------


 k-point   1 :   0.0000 0.0000 0.0000  plane waves:   18613
 k-point   2 :   0.2500 0.0000 0.0000  plane waves:   18533
 k-point   3 :   0.5000 0.0000-0.0000  plane waves:   18496
 k-point   4 :   0.0000 0.2500 0.0000  plane waves:   18533
 k-point   5 :   0.2500 0.2500 0.0000  plane waves:   18509
 k-point   6 :   0.5000 0.2500-0.0000  plane waves:   18508
 k-point   7 :  -0.2500 0.2500-0.0000  plane waves:   18509
 k-point   8 :   0.0000 0.5000 0.0000  plane waves:   18500
 k-point   9 :   0.2500 0.5000 0.0000  plane waves:   18507
 k-point  10 :   0.5000 0.5000-0.0000  plane waves:   18528
 k-point  11 :   0.0000 0.0000 0.2500  plane waves:   18533
 k-point  12 :   0.2500 0.0000 0.2500  plane waves:   18509
 k-point  13 :   0.5000 0.0000 0.2500  plane waves:   18510
 k-point  14 :  -0.2500-0.0000 0.2500  plane waves:   18509
 k-point  15 :   0.0000 0.2500 0.2500  plane waves:   18509
 k-point  16 :   0.2500 0.2500 0.2500  plane waves:   18525
 k-point  17 :   0.5000 0.2500 0.2500  plane waves:   18478
 k-point  18 :  -0.2500 0.2500 0.2500  plane waves:   18533
 k-point  19 :   0.0000 0.5000 0.2500  plane waves:   18509
 k-point  20 :   0.2500 0.5000 0.2500  plane waves:   18478
 k-point  21 :   0.5000 0.5000 0.2500  plane waves:   18500
 k-point  22 :  -0.2500 0.5000 0.2500  plane waves:   18478
 k-point  23 :  -0.0000-0.2500 0.2500  plane waves:   18509
 k-point  24 :   0.2500-0.2500 0.2500  plane waves:   18531
 k-point  25 :   0.5000-0.2500 0.2500  plane waves:   18478
 k-point  26 :  -0.2500-0.2500 0.2500  plane waves:   18530
 k-point  27 :   0.0000 0.0000 0.5000  plane waves:   18498
 k-point  28 :   0.2500-0.0000 0.5000  plane waves:   18507
 k-point  29 :   0.5000 0.0000 0.5000  plane waves:   18528
 k-point  30 :  -0.0000 0.2500 0.5000  plane waves:   18507
 k-point  31 :   0.2500 0.2500 0.5000  plane waves:   18478
 k-point  32 :   0.5000 0.2500 0.5000  plane waves:   18500
 k-point  33 :  -0.2500 0.2500 0.5000  plane waves:   18478
 k-point  34 :   0.0000 0.5000 0.5000  plane waves:   18528
 k-point  35 :   0.2500 0.5000 0.5000  plane waves:   18500
 k-point  36 :   0.5000 0.5000 0.5000  plane waves:   18504

 maximum and minimum number of plane-waves per node :     18613    18478

 maximum number of plane-waves:     18613
 maximum index in each direction: 
   IXMAX=   16   IYMAX=   16   IZMAX=   16
   IXMIN=  -16   IYMIN=  -16   IZMIN=  -16


 serial   3D FFT for wavefunctions
 parallel 3D FFT for charge:
    minimum data exchange during FFTs selected (reduces bandwidth)


 total amount of memory used by VASP MPI-rank0  2782079. kBytes
=======================================================================

   base      :      30000. kBytes
   nonl-proj :     303764. kBytes
   fftplans  :      34720. kBytes
   grid      :      70000. kBytes
   one-center:        746. kBytes
   wavefun   :    2342849. kBytes
 
     INWAV:  cpu time    4.5045: real time    4.7939
 Broyden mixing: mesh for mixing (old mesh)
   NGX = 33   NGY = 33   NGZ = 33
  (NGX  =100   NGY  =100   NGZ  =100)
  gives a total of  35937 points

 initial charge density was supplied:
 number of electron     352.0000648 magnetization 
 keeping initial charge density in first step


--------------------------------------------------------------------------------------------------------


 Maximum index for augmentation-charges         5608 (set IRDMAX)


--------------------------------------------------------------------------------------------------------


 First call to EWALD:  gamma=   0.139
 Maximum number of real-space cells 3x 3x 3
 Maximum number of reciprocal cells 3x 3x 3

    FEWALD:  cpu time    0.0026: real time    0.0026


--------------------------------------- Iteration      1(   1)  ---------------------------------------


    POTLOK:  cpu time    0.5775: real time    0.5945
    SETDIJ:  cpu time    0.0271: real time    0.0271
     EDDAV:  cpu time   59.7481: real time   59.7496
 BZINTS: Fermi energy:    2.051244;  352.000000 electrons
         Band energy:-0.759285E+03;  BLOECHL correction:    0.000000
       DOS:  cpu time    0.0567: real time    0.0567
    CHARGE:  cpu time    1.2390: real time    1.2391
    MIXING:  cpu time    0.0270: real time    0.0270
    --------------------------------------------
      LOOP:  cpu time   61.6755: real time   61.6941

 eigenvalue-minimisations  : 10880
 total energy-change (2. order) :-0.1199644E+03  (-0.3064749E-06)
 number of electron     352.0000648 magnetization 
 augmentation part      -23.1227654 magnetization 

 Broyden mixing:
  rms(total) = 0.67929E-03    rms(broyden)= 0.67926E-03
  rms(prec ) = 0.80789E-03
  weight for this iteration     100.00

 Free energy of the ion-electron system (eV)
  ---------------------------------------------------
  alpha Z        PSCENC =       225.88851596
  Ewald energy   TEWEN  =    -13866.36792863
  -Hartree energ DENC   =     -6082.04180234
  -exchange      EXHF   =         0.00000000
  -V(xc)+E(xc)   XCENC  =     -1392.36235033
  PAW double counting   =     22640.79354042   -20498.31349640
  entropy T*S    EENTRO =         0.00000000
  eigenvalues    EBANDS =      -759.28462977
  atomic energy  EATOM  =     19611.72375700
  Solvation  Ediel_sol  =         0.00000000
  ---------------------------------------------------
  free energy    TOTEN  =      -119.96439410 eV

  energy without entropy =     -119.96439410  energy(sigma->0) =     -119.96439410


--------------------------------------------------------------------------------------------------------




--------------------------------------- Iteration      1(   2)  ---------------------------------------


    POTLOK:  cpu time    0.5627: real time    0.5629
    SETDIJ:  cpu time    0.0558: real time    0.0558
     EDDAV:  cpu time   50.0605: real time   50.0617
 BZINTS: Fermi energy:    2.051268;  352.000000 electrons
         Band energy:-0.759282E+03;  BLOECHL correction:    0.000000
       DOS:  cpu time    0.0546: real time    0.0546
    --------------------------------------------
      LOOP:  cpu time   50.7336: real time   50.7350

 eigenvalue-minimisations  :  8213
 total energy-change (2. order) : 0.1435001E-06  (-0.1304567E-06)
 number of electron     352.0000648 magnetization 
 augmentation part      -23.1227654 magnetization 

 Free energy of the ion-electron system (eV)
  ---------------------------------------------------
  alpha Z        PSCENC =       225.88851596
  Ewald energy   TEWEN  =    -13866.36792863
  -Hartree energ DENC   =     -6082.04424056
  -exchange      EXHF   =         0.00000000
  -V(xc)+E(xc)   XCENC  =     -1392.36181497
  PAW double counting   =     22640.35332940   -20497.87407994
  entropy T*S    EENTRO =         0.00000000
  eigenvalues    EBANDS =      -759.28193221
  atomic energy  EATOM  =     19611.72375700
  Solvation  Ediel_sol  =         0.00000000
  ---------------------------------------------------
  free energy    TOTEN  =      -119.96439395 eV

  energy without entropy =     -119.96439395  energy(sigma->0) =     -119.96439395


--------------------------------------------------------------------------------------------------------




 average (electrostatic) potential at core
  the test charge radii are     1.1249  1.4024  1.1875
  (the norm of the test charge is              1.0000)
       1 -75.1938       2 -75.0733       3 -75.0723       4 -75.0052       5 -75.0631
       6 -75.1899       7 -75.0050       8 -75.0628       9 -65.4781      10 -65.5337
      11 -65.5347      12 -65.4785      13 -65.5316      14 -65.5094      15 -65.5312
      16 -65.5064      17 -93.3251      18 -93.3390      19 -93.3210      20 -93.2320
      21 -93.2360      22 -93.3228      23 -93.3339      24 -93.3189      25 -93.1000
      26 -93.0880      27 -93.1027      28 -93.1999      29 -93.1961      30 -93.0011
      31 -93.0879      32 -93.0009      33 -93.2377      34 -93.3251      35 -93.3330
      36 -93.3211      37 -93.3271      38 -93.3406      39 -93.3142      40 -93.2305
      41 -93.1736      42 -93.0773      43 -93.0741      44 -93.0749      45 -93.0139
      46 -93.0754      47 -93.0150      48 -93.1714
 
 
 
 E-fermi :   2.0513     XC(G=0):  -7.7991     alpha+bet : -7.7639


 k-point     1 :       0.0000    0.0000    0.0000
  band No.  band energies     occupation 
      1     -10.8473      2.00000
      2     -10.7185      2.00000
      3     -10.6725      2.00000
      4     -10.5378      2.00000
      5     -10.4835      2.00000
      6     -10.2581      2.00000
      7     -10.2255      2.00000
      8     -10.0454      2.00000
      9      -9.8918      2.00000
     10      -9.8846      2.00000
     11      -9.8693      2.00000
     12      -9.8534      2.00000
     13      -9.8470      2.00000
     14      -9.8092      2.00000
     15      -9.8079      2.00000
     16      -9.7438      2.00000
     17      -9.7329      2.00000
     18      -9.7177      2.00000
     19      -9.7055      2.00000
     20      -9.7038      2.00000
     21      -9.6851      2.00000
     22      -9.6628      2.00000
     23      -9.6543      2.00000
     24      -9.6293      2.00000
     25      -9.6163      2.00000
     26      -9.6085      2.00000
     27      -9.5901      2.00000
     28      -9.5665      2.00000
     29      -9.5550      2.00000
     30      -9.5523      2.00000
     31      -9.5447      2.00000
     32      -9.5125      2.00000
     33      -8.2260      2.00000
     34      -8.1256      2.00000
     35      -8.1157      2.00000
     36      -7.8839      2.00000
     37      -7.8589      2.00000
     38      -7.6470      2.00000
     39      -7.6343      2.00000
     40      -7.6315      2.00000
     41      -1.8239      2.00000
     42      -1.7644      2.00000
     43      -1.7206      2.00000
     44      -1.7056      2.00000
     45      -1.6585      2.00000
     46      -1.5899      2.00000
     47      -1.5334      2.00000
     48      -1.4790      2.00000
     49      -1.4748      2.00000
     50      -1.4407      2.00000
     51      -1.4387      2.00000
     52      -1.3967      2.00000
     53      -1.3608      2.00000
     54      -1.3292      2.00000
     55      -1.3219      2.00000
     56      -1.2795      2.00000
     57      -1.2373      2.00000
     58      -1.2275      2.00000
     59      -1.1606      2.00000
     60      -1.1187      2.00000
     61      -1.1006      2.00000
     62      -1.0678      2.00000
     63      -1.0242      2.00000
     64      -1.0219      2.00000
     65      -1.0202      2.00000
     66      -1.0027      2.00000
     67      -0.9916      2.00000
     68      -0.9897      2.00000
     69      -0.9623      2.00000
     70      -0.9249      2.00000
     71      -0.9227      2.00000
     72      -0.9204      2.00000
     73      -0.8898      2.00000
     74      -0.8544      2.00000
     75      -0.8486      2.00000
     76      -0.8225      2.00000
     77      -0.8164      2.00000
     78      -0.8092      2.00000
     79      -0.7846      2.00000
     80      -0.7351      2.00000
     81      -0.7052      2.00000
     82      -0.7019      2.00000
     83      -0.6638      2.00000
     84      -0.6463      2.00000
     85      -0.6327      2.00000
     86      -0.6213      2.00000
     87      -0.5804      2.00000
     88      -0.5556      2.00000
     89      -0.5457      2.00000
     90      -0.5103      2.00000
     91      -0.4911      2.00000
     92      -0.4744      2.00000
     93      -0.4677      2.00000
     94      -0.4198      2.00000
     95      -0.4043      2.00000
     96      -0.3776      2.00000
     97      -0.3577      2.00000
     98      -0.3546      2.00000
     99      -0.3336      2.00000
    100      -0.3244      2.00000
    101      -0.2916      2.00000
    102      -0.2676      2.00000
    103      -0.2606      2.00000
    104      -0.2298      2.00000
    105      -0.2149      2.00000
    106      -0.2053      2.00000
    107      -0.1767      2.00000
    108      -0.1588      2.00000
    109      -0.1340      2.00000
    110      -0.1233      2.00000
    111      -0.0664      2.00000
    112      -0.0528      2.00000
    113       0.0743      2.00000
    114       0.1231      2.00000
    115       0.1617      2.00000
    116       0.1729      2.00000
    117       0.1822      2.00000
    118       0.2107      2.00000
    119       0.2338      2.00000
    120       0.2402      2.00000
    121       0.2520      2.00000
    122       0.2860      2.00000
    123       0.3497      2.00000
    124       0.3942      2.00000
    125       0.3944      2.00000
    126       0.4138      2.00000
    127       0.4774      2.00000
    128       0.5145      2.00000
    129       0.5240      2.00000
    130       0.5249      2.00000
    131       0.5406      2.00000
    132       0.5482      2.00000
    133       0.5812      2.00000
    134       0.6353      2.00000
    135       0.6894      2.00000
    136       0.7045      2.00000
    137       0.7076      2.00000
    138       0.7142      2.00000
    139       0.7235      2.00000
    140       0.7751      2.00000
    141       0.7845      2.00000
    142       0.7886      2.00000
    143       0.8186      2.00000
    144       0.8343      2.00000
    145       0.8465      2.00000
    146       0.8884      2.00000
    147       0.9360      2.00000
    148       0.9590      2.00000
    149       0.9860      2.00000
    150       1.0256      2.00000
    151       1.0621      2.00000
    152       1.0898      2.00000
    153       1.0987      2.00000
    154       1.1461      2.00000
    155       1.1602      2.00000
    156       1.1701      2.00000
    157       1.1926      2.00000
    158       1.1998      2.00000
    159       1.2360      2.00000
    160       1.3032      2.00000
    161       1.3549      2.00000
    162       1.3972      2.00000
    163       1.4524      2.00000
    164       1.4808      2.00000
    165       1.5285      2.00000
    166       1.5420      2.00000
    167       1.5698      2.00000
    168       1.5965      2.00000
    169       1.7526      2.00000
    170       1.7583      2.00000
    171       1.8686      2.00000
    172       1.8850      2.00000
    173       1.9972      2.00000
    174       2.0070      2.00000
    175       2.0218      2.00000
    176       2.0512      2.00000
    177       3.8340      0.00000
    178       3.9971      0.00000
    179       4.0016      0.00000
    180       4.1170      0.00000
    181       4.1557      0.00000
    182       4.3365      0.00000
    183       4.3412      0.00000
    184       4.3875      0.00000
    185       4.4191      0.00000
    186       4.4350      0.00000
    187       4.5141      0.00000
    188       4.5261      0.00000
    189       4.5526      0.00000
    190       4.5602      0.00000
    191       4.5979      0.00000
    192       4.6030      0.00000
    193       4.6415      0.00000
    194       4.6983      0.00000
    195       4.7278      0.00000
    196       4.7309      0.00000
    197       4.7949      0.00000
    198       4.8238      0.00000
    199       4.8326      0.00000
    200       4.9489      0.00000
    201       5.0694      0.00000
    202       5.2667      0.00000
    203       5.5727      0.00000
    204       5.7174      0.00000
    205       5.9089      0.00000
    206       5.9285      0.00000
    207       5.9446      0.00000
    208       5.9815      0.00000
    209       7.1528      0.00000
    210       7.2584      0.00000
    211       7.2684      0.00000

 k-point     2 :       0.2500    0.0000    0.0000
  band No.  band energies     occupation 
      1     -10.8325      2.00000
      2     -10.7241      2.00000
      3     -10.6928      2.00000
      4     -10.5351      2.00000
      5     -10.4802      2.00000
      6     -10.2569      2.00000
      7     -10.2143      2.00000
      8     -10.0560      2.00000
      9      -9.8973      2.00000
     10      -9.8929      2.00000
     11      -9.8740      2.00000
     12      -9.8543      2.00000
     13      -9.8492      2.00000
     14      -9.7998      2.00000
     15      -9.7884      2.00000
     16      -9.7466      2.00000
     17      -9.7323      2.00000
     18      -9.7189      2.00000
     19      -9.6994      2.00000
     20      -9.6960      2.00000
     21      -9.6904      2.00000
     22      -9.6613      2.00000
     23      -9.6506      2.00000
     24      -9.6352      2.00000
     25      -9.6138      2.00000
     26      -9.6104      2.00000
     27      -9.5854      2.00000
     28      -9.5702      2.00000
     29      -9.5591      2.00000
     30      -9.5536      2.00000
     31      -9.5423      2.00000
     32      -9.5182      2.00000
     33      -8.2312      2.00000
     34      -8.1226      2.00000
     35      -8.1152      2.00000
     36      -7.8825      2.00000
     37      -7.8596      2.00000
     38      -7.6798      2.00000
     39      -7.6308      2.00000
     40      -7.6024      2.00000
     41      -1.8023      2.00000
     42      -1.7493      2.00000
     43      -1.7200      2.00000
     44      -1.6916      2.00000
     45      -1.6520      2.00000
     46      -1.6114      2.00000
     47      -1.5633      2.00000
     48      -1.5479      2.00000
     49      -1.4958      2.00000
     50      -1.4535      2.00000
     51      -1.3979      2.00000
     52      -1.3863      2.00000
     53      -1.3532      2.00000
     54      -1.3243      2.00000
     55      -1.3034      2.00000
     56      -1.2738      2.00000
     57      -1.2267      2.00000
     58      -1.2039      2.00000
     59      -1.1809      2.00000
     60      -1.1334      2.00000
     61      -1.1182      2.00000
     62      -1.0857      2.00000
     63      -1.0525      2.00000
     64      -1.0380      2.00000
     65      -1.0226      2.00000
     66      -1.0026      2.00000
     67      -0.9811      2.00000
     68      -0.9684      2.00000
     69      -0.9483      2.00000
     70      -0.9388      2.00000
     71      -0.9198      2.00000
     72      -0.9033      2.00000
     73      -0.8882      2.00000
     74      -0.8753      2.00000
     75      -0.8424      2.00000
     76      -0.8220      2.00000
     77      -0.8146      2.00000
     78      -0.8098      2.00000
     79      -0.7666      2.00000
     80      -0.7567      2.00000
     81      -0.7086      2.00000
     82      -0.6821      2.00000
     83      -0.6611      2.00000
     84      -0.6509      2.00000
     85      -0.6348      2.00000
     86      -0.5945      2.00000
     87      -0.5843      2.00000
     88      -0.5577      2.00000
     89      -0.5138      2.00000
     90      -0.5021      2.00000
     91      -0.4836      2.00000
     92      -0.4728      2.00000
     93      -0.4451      2.00000
     94      -0.4209      2.00000
     95      -0.4029      2.00000
     96      -0.3912      2.00000
     97      -0.3769      2.00000
     98      -0.3690      2.00000
     99      -0.3433      2.00000
    100      -0.3185      2.00000
    101      -0.3062      2.00000
    102      -0.2852      2.00000
    103      -0.2291      2.00000
    104      -0.2265      2.00000
    105      -0.2118      2.00000
    106      -0.1817      2.00000
    107      -0.1637      2.00000
    108      -0.1608      2.00000
    109      -0.1488      2.00000
    110      -0.1387      2.00000
    111      -0.1042      2.00000
    112      -0.0541      2.00000
    113       0.0804      2.00000
    114       0.1077      2.00000
    115       0.1288      2.00000
    116       0.1456      2.00000
    117       0.1757      2.00000
    118       0.2260      2.00000
    119       0.2454      2.00000
    120       0.2622      2.00000
    121       0.2842      2.00000
    122       0.3341      2.00000
    123       0.3478      2.00000
    124       0.3545      2.00000
    125       0.4142      2.00000
    126       0.4450      2.00000
    127       0.4642      2.00000
    128       0.5092      2.00000
    129       0.5239      2.00000
    130       0.5512      2.00000
    131       0.5661      2.00000
    132       0.5892      2.00000
    133       0.5995      2.00000
    134       0.6235      2.00000
    135       0.6479      2.00000
    136       0.6840      2.00000
    137       0.6971      2.00000
    138       0.7166      2.00000
    139       0.7525      2.00000
    140       0.7581      2.00000
    141       0.7731      2.00000
    142       0.8104      2.00000
    143       0.8166      2.00000
    144       0.8296      2.00000
    145       0.8627      2.00000
    146       0.8972      2.00000
    147       0.9702      2.00000
    148       0.9848      2.00000
    149       0.9885      2.00000
    150       1.0097      2.00000
    151       1.0179      2.00000
    152       1.0771      2.00000
    153       1.1229      2.00000
    154       1.1460      2.00000
    155       1.1514      2.00000
    156       1.1529      2.00000
    157       1.1834      2.00000
    158       1.2081      2.00000
    159       1.2390      2.00000
    160       1.2921      2.00000
    161       1.3519      2.00000
    162       1.4064      2.00000
    163       1.4633      2.00000
    164       1.4754      2.00000
    165       1.5212      2.00000
    166       1.5462      2.00000
    167       1.5954      2.00000
    168       1.6178      2.00000
    169       1.7480      2.00000
    170       1.7622      2.00000
    171       1.8462      2.00000
    172       1.8715      2.00000
    173       1.9622      2.00000
    174       1.9722      2.00000
    175       2.0018      2.00000
    176       2.0142      2.00000
    177       3.8933      0.00000
    178       3.9836      0.00000
    179       4.0234      0.00000
    180       4.1393      0.00000
    181       4.1591      0.00000
    182       4.2966      0.00000
    183       4.3172      0.00000
    184       4.3883      0.00000
    185       4.4209      0.00000
    186       4.4452      0.00000
    187       4.4656      0.00000
    188       4.5032      0.00000
    189       4.5724      0.00000
    190       4.5807      0.00000
    191       4.5929      0.00000
    192       4.6212      0.00000
    193       4.6465      0.00000
    194       4.6565      0.00000
    195       4.6945      0.00000
    196       4.7544      0.00000
    197       4.7808      0.00000
    198       4.8230      0.00000
    199       4.8545      0.00000
    200       4.9279      0.00000
    201       5.1961      0.00000
    202       5.3509      0.00000
    203       5.5834      0.00000
    204       5.7296      0.00000
    205       5.8067      0.00000
    206       5.8271      0.00000
    207       5.9478      0.00000
    208       5.9615      0.00000
    209       7.2647      0.00000
    210       7.2986      0.00000
    211       7.3677      0.00000

 k-point     3 :       0.5000    0.0000   -0.0000
  band No.  band energies     occupation 
      1     -10.8088      2.00000
      2     -10.7481      2.00000
      3     -10.7020      2.00000
      4     -10.5335      2.00000
      5     -10.4773      2.00000
      6     -10.2571      2.00000
      7     -10.2015      2.00000
      8     -10.0660      2.00000
      9      -9.9029      2.00000
     10      -9.9000      2.00000
     11      -9.8774      2.00000
     12      -9.8556      2.00000
     13      -9.8507      2.00000
     14      -9.7892      2.00000
     15      -9.7701      2.00000
     16      -9.7481      2.00000
     17      -9.7397      2.00000
     18      -9.7131      2.00000
     19      -9.7053      2.00000
     20      -9.6958      2.00000
     21      -9.6737      2.00000
     22      -9.6683      2.00000
     23      -9.6452      2.00000
     24      -9.6266      2.00000
     25      -9.6202      2.00000
     26      -9.6174      2.00000
     27      -9.5823      2.00000
     28      -9.5781      2.00000
     29      -9.5570      2.00000
     30      -9.5534      2.00000
     31      -9.5359      2.00000
     32      -9.5299      2.00000
     33      -8.2363      2.00000
     34      -8.1215      2.00000
     35      -8.1125      2.00000
     36      -7.8818      2.00000
     37      -7.8601      2.00000
     38      -7.6968      2.00000
     39      -7.6283      2.00000
     40      -7.5881      2.00000
     41      -1.7658      2.00000
     42      -1.7480      2.00000
     43      -1.6984      2.00000
     44      -1.6752      2.00000
     45      -1.6616      2.00000
     46      -1.6417      2.00000
     47      -1.5936      2.00000
     48      -1.5723      2.00000
     49      -1.5225      2.00000
     50      -1.4524      2.00000
     51      -1.4225      2.00000
     52      -1.3854      2.00000
     53      -1.3188      2.00000
     54      -1.3082      2.00000
     55      -1.2935      2.00000
     56      -1.2558      2.00000
     57      -1.2409      2.00000
     58      -1.1927      2.00000
     59      -1.1809      2.00000
     60      -1.1646      2.00000
     61      -1.1538      2.00000
     62      -1.1054      2.00000
     63      -1.0513      2.00000
     64      -1.0211      2.00000
     65      -1.0179      2.00000
     66      -0.9953      2.00000
     67      -0.9701      2.00000
     68      -0.9589      2.00000
     69      -0.9476      2.00000
     70      -0.9371      2.00000
     71      -0.9332      2.00000
     72      -0.9054      2.00000
     73      -0.8703      2.00000
     74      -0.8583      2.00000
     75      -0.8482      2.00000
     76      -0.8372      2.00000
     77      -0.8145      2.00000
     78      -0.8060      2.00000
     79      -0.7886      2.00000
     80      -0.7695      2.00000
     81      -0.6982      2.00000
     82      -0.6753      2.00000
     83      -0.6607      2.00000
     84      -0.6372      2.00000
     85      -0.6320      2.00000
     86      -0.5990      2.00000
     87      -0.5729      2.00000
     88      -0.5237      2.00000
     89      -0.5104      2.00000
     90      -0.5041      2.00000
     91      -0.4945      2.00000
     92      -0.4749      2.00000
     93      -0.4337      2.00000
     94      -0.4265      2.00000
     95      -0.4073      2.00000
     96      -0.3887      2.00000
     97      -0.3589      2.00000
     98      -0.3567      2.00000
     99      -0.3438      2.00000
    100      -0.3346      2.00000
    101      -0.3117      2.00000
    102      -0.3045      2.00000
    103      -0.2366      2.00000
    104      -0.2112      2.00000
    105      -0.1909      2.00000
    106      -0.1817      2.00000
    107      -0.1684      2.00000
    108      -0.1637      2.00000
    109      -0.1550      2.00000
    110      -0.1276      2.00000
    111      -0.1219      2.00000
    112      -0.0568      2.00000
    113       0.0358      2.00000
    114       0.0537      2.00000
    115       0.0976      2.00000
    116       0.1415      2.00000
    117       0.1785      2.00000
    118       0.2054      2.00000
    119       0.2595      2.00000
    120       0.2861      2.00000
    121       0.3122      2.00000
    122       0.3835      2.00000
    123       0.3981      2.00000
    124       0.4159      2.00000
    125       0.4426      2.00000
    126       0.4564      2.00000
    127       0.4888      2.00000
    128       0.5090      2.00000
    129       0.5304      2.00000
    130       0.5434      2.00000
    131       0.5532      2.00000
    132       0.5717      2.00000
    133       0.5751      2.00000
    134       0.6352      2.00000
    135       0.6395      2.00000
    136       0.6527      2.00000
    137       0.7088      2.00000
    138       0.7175      2.00000
    139       0.7446      2.00000
    140       0.7549      2.00000
    141       0.7668      2.00000
    142       0.7946      2.00000
    143       0.8148      2.00000
    144       0.8703      2.00000
    145       0.8785      2.00000
    146       0.9210      2.00000
    147       0.9343      2.00000
    148       0.9682      2.00000
    149       0.9988      2.00000
    150       1.0330      2.00000
    151       1.0609      2.00000
    152       1.0650      2.00000
    153       1.0839      2.00000
    154       1.0886      2.00000
    155       1.1414      2.00000
    156       1.1621      2.00000
    157       1.1905      2.00000
    158       1.2287      2.00000
    159       1.2454      2.00000
    160       1.2698      2.00000
    161       1.3873      2.00000
    162       1.4079      2.00000
    163       1.4429      2.00000
    164       1.4621      2.00000
    165       1.5794      2.00000
    166       1.5828      2.00000
    167       1.5968      2.00000
[...]
    143       0.8494      2.00000
    144       0.8527      2.00000
    145       0.9164      2.00000
    146       0.9261      2.00000
    147       1.0116      2.00000
    148       1.0175      2.00000
    149       1.0358      2.00000
    150       1.0431      2.00000
    151       1.0712      2.00000
    152       1.0751      2.00000
    153       1.0932      2.00000
    154       1.0987      2.00000
    155       1.1602      2.00000
    156       1.1623      2.00000
    157       1.2052      2.00000
    158       1.2058      2.00000
    159       1.2600      2.00000
    160       1.2632      2.00000
    161       1.4394      2.00000
    162       1.4415      2.00000
    163       1.5704      2.00000
    164       1.5742      2.00000
    165       1.5798      2.00000
    166       1.5843      2.00000
    167       1.6725      2.00000
    168       1.6773      2.00000
    169       1.7450      2.00000
    170       1.7538      2.00000
    171       1.8271      2.00000
    172       1.8306      2.00000
    173       1.8631      2.00000
    174       1.8670      2.00000
    175       1.9792      2.00000
    176       1.9823      2.00000
    177       3.8022      0.00000
    178       3.8047      0.00000
    179       3.9871      0.00000
    180       3.9888      0.00000
    181       4.1002      0.00000
    182       4.1027      0.00000
    183       4.2507      0.00000
    184       4.2542      0.00000
    185       4.3187      0.00000
    186       4.3228      0.00000
    187       4.4230      0.00000
    188       4.4252      0.00000
    189       4.5952      0.00000
    190       4.6010      0.00000
    191       4.6725      0.00000
    192       4.6802      0.00000
    193       4.7673      0.00000
    194       4.7707      0.00000
    195       4.8167      0.00000
    196       4.8220      0.00000
    197       4.8805      0.00000
    198       4.8861      0.00000
    199       5.0087      0.00000
    200       5.0146      0.00000
    201       5.5481      0.00000
    202       5.5509      0.00000
    203       5.5860      0.00000
    204       5.5926      0.00000
    205       5.6226      0.00000
    206       5.6490      0.00000
    207       5.7830      0.00000
    208       5.7870      0.00000
    209       7.3206      0.00000
    210       7.3239      0.00000
    211       7.4882      0.00000

 k-point    36 :       0.5000    0.5000    0.5000
  band No.  band energies     occupation 
      1     -10.7724      2.00000
      2     -10.7717      2.00000
      3     -10.6438      2.00000
      4     -10.6435      2.00000
      5     -10.3865      2.00000
      6     -10.3858      2.00000
      7     -10.1201      2.00000
      8     -10.1184      2.00000
      9      -9.9112      2.00000
     10      -9.9052      2.00000
     11      -9.8232      2.00000
     12      -9.8190      2.00000
     13      -9.7938      2.00000
     14      -9.7934      2.00000
     15      -9.7524      2.00000
     16      -9.7513      2.00000
     17      -9.7314      2.00000
     18      -9.7287      2.00000
     19      -9.7073      2.00000
     20      -9.7028      2.00000
     21      -9.6965      2.00000
     22      -9.6949      2.00000
     23      -9.6428      2.00000
     24      -9.6342      2.00000
     25      -9.6190      2.00000
     26      -9.6146      2.00000
     27      -9.5897      2.00000
     28      -9.5843      2.00000
     29      -9.5578      2.00000
     30      -9.5505      2.00000
     31      -9.5409      2.00000
     32      -9.5396      2.00000
     33      -8.2030      2.00000
     34      -8.2012      2.00000
     35      -8.0086      2.00000
     36      -8.0055      2.00000
     37      -7.7689      2.00000
     38      -7.7640      2.00000
     39      -7.5885      2.00000
     40      -7.5883      2.00000
     41      -1.7850      2.00000
     42      -1.7834      2.00000
     43      -1.6801      2.00000
     44      -1.6778      2.00000
     45      -1.6357      2.00000
     46      -1.6340      2.00000
     47      -1.5438      2.00000
     48      -1.5410      2.00000
     49      -1.4927      2.00000
     50      -1.4926      2.00000
     51      -1.4623      2.00000
     52      -1.4589      2.00000
     53      -1.3813      2.00000
     54      -1.3792      2.00000
     55      -1.2910      2.00000
     56      -1.2899      2.00000
     57      -1.2741      2.00000
     58      -1.2719      2.00000
     59      -1.1451      2.00000
     60      -1.1399      2.00000
     61      -1.0498      2.00000
     62      -1.0490      2.00000
     63      -1.0164      2.00000
     64      -1.0109      2.00000
     65      -0.9999      2.00000
     66      -0.9906      2.00000
     67      -0.9753      2.00000
     68      -0.9663      2.00000
     69      -0.9261      2.00000
     70      -0.9107      2.00000
     71      -0.8928      2.00000
     72      -0.8837      2.00000
     73      -0.8738      2.00000
     74      -0.8734      2.00000
     75      -0.8478      2.00000
     76      -0.8467      2.00000
     77      -0.8338      2.00000
     78      -0.8269      2.00000
     79      -0.7484      2.00000
     80      -0.7472      2.00000
     81      -0.7002      2.00000
     82      -0.6937      2.00000
     83      -0.6270      2.00000
     84      -0.6257      2.00000
     85      -0.5926      2.00000
     86      -0.5920      2.00000
     87      -0.5545      2.00000
     88      -0.5526      2.00000
     89      -0.5246      2.00000
     90      -0.5201      2.00000
     91      -0.4833      2.00000
     92      -0.4806      2.00000
     93      -0.4112      2.00000
     94      -0.4047      2.00000
     95      -0.3856      2.00000
     96      -0.3825      2.00000
     97      -0.3652      2.00000
     98      -0.3585      2.00000
     99      -0.3211      2.00000
    100      -0.3146      2.00000
    101      -0.3088      2.00000
    102      -0.3049      2.00000
    103      -0.2638      2.00000
    104      -0.2548      2.00000
    105      -0.2130      2.00000
    106      -0.2103      2.00000
    107      -0.1927      2.00000
    108      -0.1855      2.00000
    109      -0.1518      2.00000
    110      -0.1473      2.00000
    111      -0.0920      2.00000
    112      -0.0838      2.00000
    113       0.0314      2.00000
    114       0.0347      2.00000
    115       0.1426      2.00000
    116       0.1458      2.00000
    117       0.2284      2.00000
    118       0.2355      2.00000
    119       0.2813      2.00000
    120       0.2848      2.00000
    121       0.3639      2.00000
    122       0.3670      2.00000
    123       0.3686      2.00000
    124       0.3742      2.00000
    125       0.4182      2.00000
    126       0.4200      2.00000
    127       0.4547      2.00000
    128       0.4553      2.00000
    129       0.5083      2.00000
    130       0.5157      2.00000
    131       0.5481      2.00000
    132       0.5542      2.00000
    133       0.5718      2.00000
    134       0.5745      2.00000
    135       0.6064      2.00000
    136       0.6078      2.00000
    137       0.6615      2.00000
    138       0.6715      2.00000
    139       0.6956      2.00000
    140       0.7026      2.00000
    141       0.7353      2.00000
    142       0.7419      2.00000
    143       0.8752      2.00000
    144       0.8816      2.00000
    145       0.9022      2.00000
    146       0.9122      2.00000
    147       1.0302      2.00000
    148       1.0330      2.00000
    149       1.0486      2.00000
    150       1.0562      2.00000
    151       1.0721      2.00000
    152       1.0727      2.00000
    153       1.0877      2.00000
    154       1.0900      2.00000
    155       1.1711      2.00000
    156       1.1727      2.00000
    157       1.1989      2.00000
    158       1.2012      2.00000
    159       1.2628      2.00000
    160       1.2671      2.00000
    161       1.4720      2.00000
    162       1.4721      2.00000
    163       1.5693      2.00000
    164       1.5751      2.00000
    165       1.5793      2.00000
    166       1.5815      2.00000
    167       1.6901      2.00000
    168       1.6919      2.00000
    169       1.7656      2.00000
    170       1.7735      2.00000
    171       1.8286      2.00000
    172       1.8314      2.00000
    173       1.8626      2.00000
    174       1.8631      2.00000
    175       2.0162      2.00000
    176       2.0178      2.00000
    177       3.7043      0.00000
    178       3.7057      0.00000
    179       3.9106      0.00000
    180       3.9121      0.00000
    181       4.0416      0.00000
    182       4.0428      0.00000
    183       4.2274      0.00000
    184       4.2282      0.00000
    185       4.3092      0.00000
    186       4.3168      0.00000
    187       4.4194      0.00000
    188       4.4233      0.00000
    189       4.6099      0.00000
    190       4.6162      0.00000
    191       4.6990      0.00000
    192       4.7046      0.00000
    193       4.8150      0.00000
    194       4.8193      0.00000
    195       4.8473      0.00000
    196       4.8474      0.00000
    197       4.9486      0.00000
    198       4.9492      0.00000
    199       5.0273      0.00000
    200       5.0296      0.00000
    201       5.5333      0.00000
    202       5.5343      0.00000
    203       5.5623      0.00000
    204       5.5650      0.00000
    205       5.5894      0.00000
    206       5.6204      0.00000
    207       5.7984      0.00000
    208       5.7989      0.00000
    209       7.2401      0.00000
    210       7.2434      0.00000
    211       7.4987      0.00000


--------------------------------------------------------------------------------------------------------


 soft charge-density along one line, spin component           1
         0         1         2         3         4         5         6         7         8         9
 total charge-density along one line
 
 pseudopotential strength for first ion, spin component:           1
 -6.522   0.003  -0.000   0.000  -0.001  -6.654   0.003  -0.000
  0.003  -6.522  -0.001   0.000  -0.001   0.003  -6.654  -0.001
 -0.000  -0.001  -6.522   0.002   0.004  -0.000  -0.001  -6.654
  0.000   0.000   0.002  -6.529   0.003   0.000   0.000   0.002
 -0.001  -0.001   0.004   0.003  -6.518  -0.001  -0.001   0.004
 -6.654   0.003  -0.000   0.000  -0.001  -6.755   0.003  -0.000
  0.003  -6.654  -0.001   0.000  -0.001   0.003  -6.755  -0.001
 -0.000  -0.001  -6.654   0.002   0.004  -0.000  -0.001  -6.755
  0.000   0.000   0.002  -6.661   0.003   0.000   0.000   0.002
 -0.001  -0.001   0.004   0.003  -6.650  -0.001  -0.001   0.003
  0.000   0.000  -0.001   0.000  -0.001   0.000   0.000  -0.001
  0.000   0.000  -0.001   0.001  -0.002   0.000   0.000  -0.001
  0.005  -0.005   0.000   0.000  -0.000   0.005  -0.005   0.000
  0.000   0.000  -0.008   0.006  -0.000   0.000   0.000  -0.007
 -0.000   0.000  -0.004  -0.006   0.007  -0.000   0.000  -0.004
  0.007  -0.007   0.000   0.000   0.000   0.007  -0.007   0.000
  0.000   0.000  -0.009   0.007  -0.000   0.000   0.000  -0.009
 -0.000   0.000  -0.005  -0.007   0.008  -0.000   0.000  -0.004
 total augmentation occupancy for first ion, spin component:           1
  2.402  -0.018  -0.051  -0.016  -0.167  -0.408   0.008   0.049   0.013   0.148  -0.040   0.007  -0.075   0.002  -0.020   0.006
 -0.018   2.402  -0.119  -0.016  -0.127   0.008  -0.408   0.104   0.013   0.116  -0.039   0.007   0.075   0.021  -0.002  -0.006
 -0.051  -0.119   3.777   0.132   0.343   0.049   0.104  -1.648  -0.128  -0.341   0.213  -0.031   0.021  -0.235  -0.086  -0.001
 -0.016  -0.016   0.132   2.331   0.229   0.013   0.013  -0.127  -0.326  -0.221  -0.202   0.033   0.000  -0.053   0.053  -0.000
 -0.167  -0.127   0.343   0.229   4.174   0.148   0.116  -0.341  -0.221  -2.042   0.370  -0.054  -0.012  -0.035   0.221   0.001
 -0.408   0.008   0.049   0.013   0.148   0.397  -0.000  -0.048  -0.010  -0.132   0.035  -0.008   0.060  -0.002   0.019  -0.004
  0.008  -0.408   0.104   0.013   0.116  -0.000   0.397  -0.091  -0.010  -0.106   0.034  -0.008  -0.060  -0.019   0.002   0.004
  0.049   0.104  -1.648  -0.127  -0.341  -0.048  -0.091   1.513   0.123   0.338  -0.190   0.035  -0.018   0.213   0.080   0.001
  0.013   0.013  -0.128  -0.326  -0.221  -0.010  -0.010   0.123   0.304   0.213   0.187  -0.041  -0.000   0.039  -0.039   0.000
  0.148   0.116  -0.341  -0.221  -2.042  -0.132  -0.106   0.338   0.213   1.905  -0.329   0.061   0.010   0.030  -0.199  -0.001
 -0.040  -0.039   0.213  -0.202   0.370   0.035   0.034  -0.190   0.187  -0.329   1.482  -0.313   0.000   0.047  -0.047  -0.000
  0.007   0.007  -0.031   0.033  -0.054  -0.008  -0.008   0.035  -0.041   0.061  -0.313   0.071  -0.000  -0.011   0.011   0.000
 -0.075   0.075   0.021   0.000  -0.012   0.060  -0.060  -0.018  -0.000   0.010   0.000  -0.000   0.119   0.002   0.002  -0.008
  0.002   0.021  -0.235  -0.053  -0.035  -0.002  -0.019   0.213   0.039   0.030   0.047  -0.011   0.002   0.080   0.014  -0.000
 -0.020  -0.002  -0.086   0.053   0.221   0.019   0.002   0.080  -0.039  -0.199  -0.047   0.011   0.002   0.014   0.080  -0.000
  0.006  -0.006  -0.001  -0.000   0.001  -0.004   0.004   0.001   0.000  -0.001  -0.000   0.000  -0.008  -0.000  -0.000   0.001
 -0.000  -0.001   0.010   0.006   0.001   0.000   0.001  -0.014  -0.003  -0.001  -0.004   0.001  -0.000  -0.005  -0.001   0.000
  0.001   0.000   0.004  -0.006  -0.009  -0.001  -0.000  -0.006   0.003   0.012   0.004  -0.001  -0.000  -0.001  -0.005   0.000


------------------------ aborting loop because EDIFF is reached ----------------------------------------


 


 total charge     
 
# of ion       s       p       d       tot
------------------------------------------
    1        0.252   0.157   9.313   9.722
    2        0.242   0.151   9.319   9.712
    3        0.241   0.151   9.320   9.712
    4        0.238   0.147   9.323   9.708
    5        0.241   0.151   9.320   9.712
    6        0.254   0.160   9.311   9.725
    7        0.238   0.147   9.323   9.708
    8        0.241   0.151   9.320   9.712
    9        1.833   1.400   0.135   3.368
   10        1.834   1.401   0.138   3.373
   11        1.834   1.401   0.138   3.373
   12        1.833   1.400   0.135   3.368
   13        1.834   1.401   0.139   3.373
   14        1.835   1.397   0.139   3.370
   15        1.834   1.401   0.139   3.373
   16        1.835   1.398   0.139   3.371
   17        1.518   2.742   0.011   4.271
   18        1.518   2.742   0.012   4.272
   19        1.518   2.742   0.011   4.272
   20        1.514   2.742   0.017   4.273
   21        1.514   2.742   0.017   4.274
   22        1.518   2.742   0.013   4.273
   23        1.518   2.742   0.012   4.272
   24        1.518   2.743   0.012   4.273
   25        1.514   2.743   0.015   4.272
   26        1.516   2.743   0.015   4.274
   27        1.514   2.743   0.015   4.272
   28        1.517   2.745   0.013   4.275
   29        1.517   2.745   0.013   4.275
   30        1.513   2.747   0.016   4.276
   31        1.516   2.743   0.015   4.274
   32        1.513   2.747   0.016   4.276
   33        1.514   2.742   0.017   4.274
   34        1.518   2.742   0.011   4.271
   35        1.518   2.742   0.012   4.272
   36        1.518   2.742   0.011   4.272
   37        1.518   2.742   0.013   4.273
   38        1.518   2.742   0.012   4.272
   39        1.518   2.743   0.012   4.273
   40        1.514   2.742   0.017   4.274
   41        1.518   2.746   0.012   4.276
   42        1.514   2.743   0.015   4.272
   43        1.515   2.744   0.015   4.274
   44        1.514   2.743   0.015   4.272
   45        1.513   2.748   0.016   4.276
   46        1.515   2.744   0.015   4.274
   47        1.513   2.748   0.016   4.276
   48        1.518   2.746   0.012   4.276
--------------------------------------------------
tot         65.135 100.208  76.089 241.433
 


--------------------------------------------------------------------------------------------------------



  FREE ENERGIE OF THE ION-ELECTRON SYSTEM (eV)
  ---------------------------------------------------
  free  energy   TOTEN  =      -119.96439395 eV

  energy  without entropy=     -119.96439395  energy(sigma->0) =     -119.96439395
 


--------------------------------------------------------------------------------------------------------




--------------------------------------------------------------------------------------------------------


 writing wavefunctions
     LOOP+:  cpu time  117.2140: real time  117.2748
    4ORBIT:  cpu time    0.0000: real time    0.0000
 


 total charge     
 
# of ion       s       p       d       tot
------------------------------------------
    1        0.252   0.157   9.313   9.722
    2        0.242   0.151   9.319   9.712
    3        0.241   0.151   9.320   9.712
    4        0.238   0.147   9.323   9.708
    5        0.241   0.151   9.320   9.712
    6        0.254   0.160   9.311   9.725
    7        0.238   0.147   9.323   9.708
    8        0.241   0.151   9.320   9.712
    9        1.833   1.400   0.135   3.368
   10        1.834   1.401   0.138   3.373
   11        1.834   1.401   0.138   3.373
   12        1.833   1.400   0.135   3.368
   13        1.834   1.401   0.139   3.373
   14        1.835   1.397   0.139   3.370
   15        1.834   1.401   0.139   3.373
   16        1.835   1.398   0.139   3.371
   17        1.518   2.742   0.011   4.271
   18        1.518   2.742   0.012   4.272
   19        1.518   2.742   0.011   4.272
   20        1.514   2.742   0.017   4.273
   21        1.514   2.742   0.017   4.274
   22        1.518   2.742   0.013   4.273
   23        1.518   2.742   0.012   4.272
   24        1.518   2.743   0.012   4.273
   25        1.514   2.743   0.015   4.272
   26        1.516   2.743   0.015   4.274
   27        1.514   2.743   0.015   4.272
   28        1.517   2.745   0.013   4.275
   29        1.517   2.745   0.013   4.275
   30        1.513   2.747   0.016   4.276
   31        1.516   2.743   0.015   4.274
   32        1.513   2.747   0.016   4.276
   33        1.514   2.742   0.017   4.274
   34        1.518   2.742   0.011   4.271
   35        1.518   2.742   0.012   4.272
   36        1.518   2.742   0.011   4.272
   37        1.518   2.742   0.013   4.273
   38        1.518   2.742   0.012   4.272
   39        1.518   2.743   0.012   4.273
   40        1.514   2.742   0.017   4.274
   41        1.518   2.746   0.012   4.276
   42        1.514   2.743   0.015   4.272
   43        1.515   2.744   0.015   4.274
   44        1.514   2.743   0.015   4.272
   45        1.513   2.748   0.016   4.276
   46        1.515   2.744   0.015   4.274
   47        1.513   2.748   0.016   4.276
   48        1.518   2.746   0.012   4.276
--------------------------------------------------
tot         65.135 100.208  76.089 241.433
 
 BZINTS: Fermi energy:    2.051268;  352.000000 electrons
         Band energy:-0.759282E+03;  BLOECHL correction:    0.000000

 total amount of memory used by VASP MPI-rank0  2782079. kBytes
=======================================================================

   base      :      30000. kBytes
   nonl-proj :     303764. kBytes
   fftplans  :      34720. kBytes
   grid      :      70000. kBytes
   one-center:        746. kBytes
   wavefun   :    2342849. kBytes
 
  
  
 General timing and accounting informations for this job:
 ========================================================
  
                  Total CPU time used (sec):      156.146
                            User time (sec):      151.683
                          System time (sec):        4.464
                         Elapsed time (sec):      157.406
  
                   Maximum memory used (kb):     4343972.
                   Average memory used (kb):           0.
  
                          Minor page faults:       423299
                          Major page faults:            0
                 Voluntary context switches:         2298
