 vasp.6.1.0 28Jan20 (build Jan 13 2021 21:44:47) complex                        
  
 executed on             LinuxIFC date 2021.09.12  19:40:23
 running on    9 total cores
 distrk:  each k-point on    1 cores,    9 groups
 distr:  one band on NCORE=   1 cores,    1 groups


--------------------------------------------------------------------------------------------------------


 INCAR:
 POTCAR:    PAW_PBE Ag 02Apr2005                  
 POTCAR:    PAW_PBE Bi 08Apr2002                  
 POTCAR:    PAW_PBE I 08Apr2002                   
 -----------------------------------------------------------------------------
|                                                                             |
|           W    W    AA    RRRRR   N    N  II  N    N   GGGG   !!!           |
|           W    W   A  A   R    R  NN   N  II  NN   N  G    G  !!!           |
|           W    W  A    A  R    R  N N  N  II  N N  N  G       !!!           |
|           W WW W  AAAAAA  RRRRR   N  N N  II  N  N N  G  GGG   !            |
|           WW  WW  A    A  R   R   N   NN  II  N   NN  G    G                |
|           W    W  A    A  R    R  N    N  II  N    N   GGGG   !!!           |
|                                                                             |
|     For optimal performance we recommend to set                             |
|       NCORE = 4 - approx SQRT(number of cores).                             |
|     NCORE specifies how many cores store one orbital (NPAR=cpu/NCORE).      |
|     This setting can greatly improve the performance of VASP for DFT.       |
|     The default, NCORE=1 might be grossly inefficient on modern             |
|     multi-core architectures or massively parallel machines. Do your        |
|     own testing!!!!                                                         |
|     Unfortunately you need to use the default for GW and RPA                |
|     calculations (for HF NCORE is supported but not extensively tested      |
|     yet).                                                                   |
|                                                                             |
 -----------------------------------------------------------------------------

 POTCAR:    PAW_PBE Ag 02Apr2005                  
   VRHFIN =Ag : s1 d10                                                                              
   LEXCH  = PE                                                                                      
   EATOM  =  1037.2675 eV,   76.2370 Ry                                                             
                                                                                                    
   TITEL  = PAW_PBE Ag 02Apr2005                                                                    
   LULTRA =        F    use ultrasoft PP ?                                                          
   IUNSCR =        1    unscreen: 0-lin 1-nonlin 2-no                                               
   RPACOR =    2.000    partial core radius                                                         
   POMASS =  107.868; ZVAL   =   11.000    mass and valenz                                          
   RCORE  =    2.500    outmost cutoff radius                                                       
   RWIGS  =    2.840; RWIGS  =    1.503    wigner-seitz radius (au A)                               
   ENMAX  =  249.844; ENMIN  =  187.383 eV                                                          
   ICORE  =        3    local potential                                                             
   LCOR   =        T    correct aug charges                                                         
   LPAW   =        T    paw PP                                                                      
   EAUG   =  412.496                                                                                
   DEXC   =    0.000                                                                                
   RMAX   =    2.560    core radius for proj-oper                                                   
   RAUG   =    1.300    factor for augmentation sphere                                              
   RDEP   =    2.576    radius for radial grids                                                     
   RDEPT  =    2.072    core radius for aug-charge                                                  
                                                                                                    
   Atomic configuration                                                                             
   12 entries                                                                                       
     n  l   j            E        occ.                                                              
     1  0  0.50    -25324.9161   2.0000                                                             
     2  0  0.50     -3728.5341   2.0000                                                             
     2  1  1.50     -3344.0404   6.0000                                                             
     3  0  0.50      -683.5581   2.0000                                                             
     3  1  1.50      -557.3225   6.0000                                                             
     3  2  2.50      -358.3853  10.0000                                                             
     4  0  0.50       -95.0341   2.0000                                                             
     4  1  1.50       -58.5511   6.0000                                                             
     4  2  2.50        -7.4440  10.0000                                                             
     5  0  0.50        -4.4045   1.0000                                                             
     5  1  0.50        -1.3606   0.0000                                                             
     4  3  2.50        -1.3606   0.0000                                                             
   Description                                                                                      
     l       E           TYP  RCUT    TYP  RCUT                                                     
     2     -7.4439781     23  2.400                                                                 
     2     -8.8045607     23  2.400                                                                 
     0     -4.4044681     23  2.400                                                                 
     0      1.9520038     23  2.400                                                                 
     1     -1.3605826     23  2.500                                                                 
     1     27.2116520     23  2.500                                                                 
     3     -4.0817478     23  2.400                                                                 
  local pseudopotential read in
  partial core-charges read in
  partial kinetic energy density read in
  atomic valenz-charges read in
  non local Contribution for L=           2  read in
    real space projection operators read in
  non local Contribution for L=           2  read in
    real space projection operators read in
  non local Contribution for L=           0  read in
    real space projection operators read in
  non local Contribution for L=           0  read in
    real space projection operators read in
  non local Contribution for L=           1  read in
    real space projection operators read in
  non local Contribution for L=           1  read in
    real space projection operators read in
    PAW grid and wavefunctions read in
 
   number of l-projection  operators is LMAX  =           6
   number of lm-projection operators is LMMAX =          18
 
 POTCAR:    PAW_PBE Bi 08Apr2002                  
   VRHFIN =Bi:                                                                                      
   LEXCH  = PE                                                                                      
   EATOM  =   150.8133 eV,   11.0845 Ry                                                             
                                                                                                    
   TITEL  = PAW_PBE Bi 08Apr2002                                                                    
   LULTRA =        F    use ultrasoft PP ?                                                          
   IUNSCR =        1    unscreen: 0-lin 1-nonlin 2-no                                               
   RPACOR =    2.200    partial core radius                                                         
   POMASS =  208.980; ZVAL   =    5.000    mass and valenz                                          
   RCORE  =    3.000    outmost cutoff radius                                                       
   RWIGS  =    3.090; RWIGS  =    1.635    wigner-seitz radius (au A)                               
   ENMAX  =  105.037; ENMIN  =   78.777 eV                                                          
   ICORE  =        3    local potential                                                             
   LCOR   =        T    correct aug charges                                                         
   LPAW   =        T    paw PP                                                                      
   EAUG   =  265.427                                                                                
   DEXC   =    0.000                                                                                
   RMAX   =    3.067    core radius for proj-oper                                                   
   RAUG   =    1.300    factor for augmentation sphere                                              
   RDEP   =    3.012    radius for radial grids                                                     
   RDEPT  =    2.604    core radius for aug-charge                                                  
                                                                                                    
   Atomic configuration                                                                             
   17 entries                                                                                       
     n  l   j            E        occ.                                                              
     1  0  0.50    -90639.6582   2.0000                                                             
     2  0  0.50    -16282.4667   2.0000                                                             
     2  1  1.50    -13922.8287   6.0000                                                             
     3  0  0.50     -3930.4763   2.0000                                                             
     3  1  1.50     -3256.7013   6.0000                                                             
     3  2  2.50     -2581.6169  10.0000                                                             
     4  0  0.50      -902.2614   2.0000                                                             
     4  1  1.50      -681.5915   6.0000                                                             
     4  2  2.50      -429.8249  10.0000                                                             
     4  3  3.50      -152.6004  14.0000                                                             
     5  0  0.50      -157.7156   2.0000                                                             
     5  1  1.50       -95.8054   6.0000                                                             
     5  2  2.50       -27.0806  10.0000                                                             
     6  0  0.50       -14.4732   2.0000                                                             
     6  1  1.50        -4.5702   3.0000                                                             
     6  2  2.50        -2.7212   0.0000                                                             
     5  3  2.50        -2.7212   0.0000                                                             
   Description                                                                                      
     l       E           TYP  RCUT    TYP  RCUT                                                     
     0    -14.4732299     23  3.000                                                                 
     0    -12.2452434     23  3.000                                                                 
     1     -4.5701666     23  3.000                                                                 
     1    -13.6058260     23  3.000                                                                 
     2     -2.7211652     23  3.000                                                                 
     3     -1.3605826      7  3.000                                                                 
  local pseudopotential read in
  partial core-charges read in
  partial kinetic energy density read in
  kinetic energy density of atom read in
  atomic valenz-charges read in
  non local Contribution for L=           0  read in
    real space projection operators read in
  non local Contribution for L=           0  read in
    real space projection operators read in
  non local Contribution for L=           1  read in
    real space projection operators read in
  non local Contribution for L=           1  read in
    real space projection operators read in
  non local Contribution for L=           2  read in
    real space projection operators read in
    PAW grid and wavefunctions read in
 
   number of l-projection  operators is LMAX  =           5
   number of lm-projection operators is LMMAX =          13
 
 POTCAR:    PAW_PBE I 08Apr2002                   
   VRHFIN =I : s2p5                                                                                 
   LEXCH  = PE                                                                                      
   EATOM  =   315.8678 eV,   23.2156 Ry                                                             
                                                                                                    
   TITEL  = PAW_PBE I 08Apr2002                                                                     
   LULTRA =        F    use ultrasoft PP ?                                                          
   IUNSCR =        1    unscreen: 0-lin 1-nonlin 2-no                                               
   RPACOR =    2.200    partial core radius                                                         
   POMASS =  126.904; ZVAL   =    7.000    mass and valenz                                          
   RCORE  =    2.300    outmost cutoff radius                                                       
   RWIGS  =    2.810; RWIGS  =    1.487    wigner-seitz radius (au A)                               
   ENMAX  =  175.647; ENMIN  =  131.735 eV                                                          
   ICORE  =        3    local potential                                                             
   LCOR   =        T    correct aug charges                                                         
   LPAW   =        T    paw PP                                                                      
   EAUG   =  370.139                                                                                
   DEXC   =    0.000                                                                                
   RMAX   =    2.359    core radius for proj-oper                                                   
   RAUG   =    1.300    factor for augmentation sphere                                              
   RDEP   =    2.392    radius for radial grids                                                     
   RDEPT  =    2.170    core radius for aug-charge                                                  
                                                                                                    
   Atomic configuration                                                                             
   13 entries                                                                                       
     n  l   j            E        occ.                                                              
     1  0  0.50    -32976.3739   2.0000                                                             
     2  0  0.50     -5094.5933   2.0000                                                             
     2  1  1.50     -4572.0131   6.0000                                                             
     3  0  0.50     -1028.2813   2.0000                                                             
     3  1  1.50      -859.0250   6.0000                                                             
     3  2  2.50      -605.7620  10.0000                                                             
     4  0  0.50      -180.5540   2.0000                                                             
     4  1  1.50      -127.5306   6.0000                                                             
     4  2  2.50       -50.2720  10.0000                                                             
     5  0  0.50       -17.4058   2.0000                                                             
     5  1  0.50        -7.0851   5.0000                                                             
     5  2  1.50        -7.0750   0.0000                                                             
     4  3  2.50        -7.0750   0.0000                                                             
   Description                                                                                      
     l       E           TYP  RCUT    TYP  RCUT                                                     
     0    -17.4058016     23  2.300                                                                 
     0    -18.7663842     23  2.300                                                                 
     1     -7.0850686     23  2.300                                                                 
     1     -4.2150896     23  2.300                                                                 
     2     -7.0750295     23  2.300                                                                 
     3     -1.3605826     23  2.300                                                                 
  local pseudopotential read in
  partial core-charges read in
  partial kinetic energy density read in
  atomic valenz-charges read in
  non local Contribution for L=           0  read in
    real space projection operators read in
  non local Contribution for L=           0  read in
    real space projection operators read in
  non local Contribution for L=           1  read in
    real space projection operators read in
  non local Contribution for L=           1  read in
    real space projection operators read in
  non local Contribution for L=           2  read in
    real space projection operators read in
    PAW grid and wavefunctions read in
 
   number of l-projection  operators is LMAX  =           5
   number of lm-projection operators is LMMAX =          13
 
 -----------------------------------------------------------------------------
|                                                                             |
|               ----> ADVICE to this user running VASP <----                  |
|                                                                             |
|     You have a (more or less) 'large supercell' and for larger cells it     |
|     might be more efficient to use real-space projection operators.         |
|     Therefore, try LREAL= Auto in the INCAR file.                           |
|     Mind: For very accurate calculation, you might also keep the            |
|     reciprocal projection scheme (i.e. LREAL=.FALSE.).                      |
|                                                                             |
 -----------------------------------------------------------------------------

  PAW_PBE Ag 02Apr2005                  :
 energy of atom  1       EATOM=-1037.2675
 kinetic energy error for atom=    0.0686 (will be added to EATOM!!)
  PAW_PBE Bi 08Apr2002                  :
 energy of atom  2       EATOM= -150.8133
 kinetic energy error for atom=    0.0004 (will be added to EATOM!!)
  PAW_PBE I 08Apr2002                   :
 energy of atom  3       EATOM= -315.8678
 kinetic energy error for atom=    0.0044 (will be added to EATOM!!)
 
 
 POSCAR: Generation Seed Number
  positions in direct lattice
  velocities in cartesian coordinates
 exchange correlation table for  LEXCH =        8
   RHO(1)=    0.500       N(1)  =     2000
   RHO(2)=  100.500       N(2)  =     4000
 


--------------------------------------------------------------------------------------------------------


 ion  position               nearest neighbor table
   1  0.245  0.275  0.012-  41 2.94  19 2.98  25 3.06  29 3.12  42 3.21  17 3.58
   2  0.475  0.500  0.025-  31 2.96  29 2.96  39 2.97  19 2.97
   3  0.002  0.249  0.253-  41 3.02  26 3.03  45 3.06  25 3.09  33 3.25  35 3.29
   4  0.005  0.775  0.740-  28 2.94  34 2.98  44 3.07  27 3.15  48 3.15  36 3.58
   5  0.775  1.000  0.724-  46 2.95  48 2.96  22 2.96  34 2.96
   6  0.488  0.725  0.255-  43 2.94  39 2.98  32 3.07  31 3.13  47 3.19  37 3.58
   7  0.759  0.225  0.495-  26 2.94  22 2.99  45 3.08  30 3.14  46 3.16  24 3.58
   8  0.247  0.748  0.498-  43 3.02  28 3.03  44 3.06  32 3.08  20 3.25  18 3.29
   9  0.002  0.004  0.999-  25 3.03  34 3.06  17 3.12  21 3.14  27 3.20  33 3.20
  10  0.748  0.750  0.998-  48 3.07  31 3.07  21 3.14  23 3.14  47 3.18  27 3.18
  11  0.999  0.500  0.500-  28 3.11  26 3.11  35 3.11  20 3.12  24 3.14  36 3.14
  12  0.249  1.000  0.251-  18 3.11  43 3.11  41 3.11  33 3.11  37 3.14  17 3.14
  13  0.501  0.996  0.499-  32 3.03  22 3.06  37 3.13  38 3.14  30 3.20  18 3.20
  14  0.749  0.496  0.251-  45 3.04  39 3.06  24 3.13  23 3.14  47 3.19  35 3.20
  15  0.502  0.250  0.752-  46 3.07  29 3.07  38 3.14  40 3.14  42 3.18  30 3.19
  16  0.248  0.503  0.751-  44 3.04  19 3.06  36 3.13  40 3.14  42 3.19  20 3.20
  17  0.247  0.993  0.004-   9 3.12  12 3.14   1 3.58
  18  0.250  0.007  0.495-  12 3.11  13 3.20   8 3.29
  19  0.244  0.508  0.991-   2 2.97   1 2.98  16 3.06
  20  0.244  0.493  0.500-  11 3.12  16 3.20   8 3.25
  21  0.755  0.996  0.011-  10 3.14   9 3.14
  22  0.741  0.991  0.494-   5 2.96   7 2.99  13 3.06
  23  0.760  0.504  0.005-  10 3.14  14 3.14
  24  0.753  0.507  0.497-  14 3.13  11 3.14   7 3.58
  25  0.007  0.242  0.011-   9 3.03   1 3.06   3 3.09
  26  0.988  0.256  0.491-   7 2.94   3 3.03  11 3.11
  27  0.998  0.753  0.986-   4 3.15  10 3.18   9 3.20
  28  0.009  0.744  0.511-   4 2.94   8 3.03  11 3.11
  29  0.489  0.270  0.992-   2 2.96  15 3.07   1 3.12
  30  0.514  0.247  0.502-   7 3.14  15 3.19  13 3.20
  31  0.507  0.730  0.010-   2 2.96  10 3.07   6 3.13
  32  0.489  0.758  0.494-  13 3.03   6 3.07   8 3.08
  33  0.005  0.993  0.250-  12 3.11   9 3.20   3 3.25
  34  0.006  0.008  0.759-   5 2.96   4 2.98   9 3.06
  35  0.000  0.507  0.256-  11 3.11  14 3.20   3 3.29
  36  0.003  0.493  0.747-  16 3.13  11 3.14   4 3.58
  37  0.496  0.007  0.253-  13 3.13  12 3.14   6 3.58
  38  0.489  0.003  0.745-  15 3.14  13 3.14
  39  0.509  0.492  0.255-   2 2.97   6 2.98  14 3.06
  40  0.495  0.496  0.740-  15 3.14  16 3.14
  41  0.239  0.244  0.241-   1 2.94   3 3.02  12 3.11
  42  0.252  0.253  0.762-  15 3.18  16 3.19   1 3.21
  43  0.259  0.756  0.261-   6 2.94   8 3.02  12 3.11
  44  0.244  0.741  0.738-  16 3.04   8 3.06   4 3.07
  45  0.761  0.258  0.255-  14 3.04   3 3.06   7 3.08
  46  0.742  0.229  0.742-   5 2.95  15 3.07   7 3.16
  47  0.738  0.747  0.248-  10 3.18   6 3.19  14 3.19
  48  0.758  0.771  0.758-   5 2.96  10 3.07   4 3.15
 
 -----------------------------------------------------------------------------
|                                                                             |
|           W    W    AA    RRRRR   N    N  II  N    N   GGGG   !!!           |
|           W    W   A  A   R    R  NN   N  II  NN   N  G    G  !!!           |
|           W    W  A    A  R    R  N N  N  II  N N  N  G       !!!           |
|           W WW W  AAAAAA  RRRRR   N  N N  II  N  N N  G  GGG   !            |
|           WW  WW  A    A  R   R   N   NN  II  N   NN  G    G                |
|           W    W  A    A  R    R  N    N  II  N    N   GGGG   !!!           |
|                                                                             |
|     The determination of the symmetry of your systems shows a strong        |
|     dependence on the tolerance parameter SYMPREC. This is often the        |
|     result of "noise" in the structural parameters (lattice vectors         |
|     and/or ionic positions). Set NWRITE=3 for more details.                 |
|                                                                             |
 -----------------------------------------------------------------------------

  LATTYP: Found a triclinic cell.
 ALAT       =    17.9963008730
 B/A-ratio  =     0.7071399106
 C/A-ratio  =     1.0000815793
 COS(alpha) =     0.0000172274
 COS(beta)  =     0.5000157137
 COS(gamma) =     0.7070306248
  
  Lattice vectors:
  
 A1 = (  12.7256593022, -12.7249534507,  -0.0003371686)
 A2 = (  -0.0010175561, -12.7259024946,  -0.0011811236)
 A3 = (  12.7259079161,  -0.0001464064, -12.7267810791)


Analysis of symmetry for initial positions (statically):
=====================================================================
 Subroutine PRICEL returns:
 Original cell was already a primitive cell.
 

 Routine SETGRP: Setting up the symmetry group for a 
 triclinic supercell.


 Subroutine GETGRP returns: Found  1 space group operations
 (whereof  1 operations were pure point group operations)
 out of a pool of  2 trial point group operations.


The static configuration has the point symmetry C_1 .


Analysis of symmetry for dynamics (positions and initial velocities):
=====================================================================
 Subroutine PRICEL returns:
 Original cell was already a primitive cell.
 

 Routine SETGRP: Setting up the symmetry group for a 
 triclinic supercell.


 Subroutine GETGRP returns: Found  1 space group operations
 (whereof  1 operations were pure point group operations)
 out of a pool of  2 trial point group operations.


The dynamic configuration has the point symmetry C_1 .


 Subroutine INISYM returns: Found  1 space group operations
 (whereof  1 operations are pure point group operations),
 and found     1 'primitive' translations


----------------------------------------------------------------------------------------

                                     Primitive cell                                     

  volume of cell :    2061.3464

  direct lattice vectors                    reciprocal lattice vectors
    12.726676858  0.000949044  0.000843955     0.078575108 -0.000006282 -0.000004747
     0.001017556 12.725902495  0.001181124    -0.000005859  0.078579890 -0.000006763
     0.000768942  0.001095450 12.727625034    -0.000005210 -0.000007292  0.078569255

  length of vectors
    12.726676922 12.725902590 12.727625104     0.078575109  0.078579890  0.078569255

  position of ions in fractional coordinates (direct lattice)
     0.244830523  0.274708953  0.012267286
     0.475043266  0.499866248  0.024765751
     0.001516106  0.248664944  0.253123214
     0.005302434  0.774574661  0.740156701
     0.775411382  0.999912754  0.724487781
     0.488370602  0.725120168  0.255146958
     0.759138572  0.225262148  0.494514966
     0.246941298  0.748337489  0.497953008
     0.001506721  0.003648639  0.998845807
     0.747786490  0.750020896  0.998064714
     0.999322999  0.499878843  0.500208651
     0.249446936  0.999881069  0.250610198
     0.500928348  0.995919030  0.498589617
     0.749009349  0.496456968  0.251302548
     0.501541120  0.249534082  0.752103196
     0.248373672  0.503074251  0.750824651
     0.246715643  0.993202424  0.003876047
     0.249688229  0.006699237  0.494922689
     0.244169656  0.507822808  0.990964127
     0.244097267  0.492859236  0.499591965
     0.754815537  0.996051113  0.010632106
     0.741073533  0.991330402  0.494441172
     0.759935627  0.503691188  0.004818026
     0.752958731  0.506540739  0.496776349
     0.006568407  0.241544529  0.010624313
     0.988132685  0.255663538  0.490757519
     0.997736760  0.752621355  0.986403612
     0.009031551  0.744051426  0.511154785
     0.489333117  0.270035392  0.992467912
     0.513701738  0.247076916  0.502161784
     0.507403488  0.729526265  0.009881094
     0.489052782  0.758107003  0.493693341
     0.004891542  0.992971098  0.250247888
     0.005590051  0.008228789  0.758805591
     0.000028852  0.506897819  0.255655424
     0.002992642  0.493232399  0.746696898
     0.496022114  0.006709535  0.253279122
     0.489007392  0.003476285  0.745135063
     0.508736141  0.491783161  0.255492944
     0.494976876  0.495842503  0.739961441
     0.238600970  0.244094431  0.241145635
     0.251758004  0.252786028  0.761502875
     0.259326647  0.755700080  0.261053441
     0.244399259  0.741430290  0.738247087
     0.761440907  0.258176686  0.255097450
     0.741768120  0.228801791  0.742222305
     0.737657138  0.746898212  0.247969028
     0.758159231  0.770723290  0.757903413

  ion indices of the primitive-cell ions
   primitive index   ion index
                 1           1
                 2           2
                 3           3
                 4           4
                 5           5
                 6           6
                 7           7
                 8           8
                 9           9
                10          10
                11          11
                12          12
                13          13
                14          14
                15          15
                16          16
                17          17
                18          18
                19          19
                20          20
                21          21
                22          22
                23          23
                24          24
                25          25
                26          26
                27          27
                28          28
                29          29
                30          30
                31          31
                32          32
                33          33
                34          34
                35          35
                36          36
                37          37
                38          38
                39          39
                40          40
                41          41
                42          42
                43          43
                44          44
                45          45
                46          46
                47          47
                48          48

----------------------------------------------------------------------------------------

 
 
 KPOINTS: agbii                                   

Automatic generation of k-mesh.
Space group operators:
 irot       det(A)        alpha          n_x          n_y          n_z        tau_x        tau_y        tau_z
    1     1.000000     0.000000     1.000000     0.000000     0.000000     0.000000     0.000000     0.000000
 TETIRR: Found    192 inequivalent tetrahedra from      384
 
 Subroutine IBZKPT returns following result:
 ===========================================
 
 Found     36 irreducible k-points:
 
 Following reciprocal coordinates:
            Coordinates               Weight
  0.000000  0.000000  0.000000      1.000000
  0.250000 -0.000000  0.000000      2.000000
  0.500000 -0.000000 -0.000000      1.000000
 -0.000000  0.250000  0.000000      2.000000
  0.250000  0.250000 -0.000000      2.000000
  0.500000  0.250000  0.000000      2.000000
 -0.250000  0.250000 -0.000000      2.000000
 -0.000000  0.500000  0.000000      1.000000
  0.250000  0.500000 -0.000000      2.000000
  0.500000  0.500000  0.000000      1.000000
 -0.000000 -0.000000  0.250000      2.000000
  0.250000 -0.000000  0.250000      2.000000
  0.500000 -0.000000  0.250000      2.000000
 -0.250000 -0.000000  0.250000      2.000000
  0.000000  0.250000  0.250000      2.000000
  0.250000  0.250000  0.250000      2.000000
  0.500000  0.250000  0.250000      2.000000
 -0.250000  0.250000  0.250000      2.000000
 -0.000000  0.500000  0.250000      2.000000
  0.250000  0.500000  0.250000      2.000000
  0.500000  0.500000  0.250000      2.000000
 -0.250000  0.500000  0.250000      2.000000
  0.000000 -0.250000  0.250000      2.000000
  0.250000 -0.250000  0.250000      2.000000
  0.500000 -0.250000  0.250000      2.000000
 -0.250000 -0.250000  0.250000      2.000000
 -0.000000 -0.000000  0.500000      1.000000
  0.250000  0.000000  0.500000      2.000000
  0.500000 -0.000000  0.500000      1.000000
  0.000000  0.250000  0.500000      2.000000
  0.250000  0.250000  0.500000      2.000000
  0.500000  0.250000  0.500000      2.000000
 -0.250000  0.250000  0.500000      2.000000
  0.000000  0.500000  0.500000      1.000000
  0.250000  0.500000  0.500000      2.000000
  0.500000  0.500000  0.500000      1.000000
 
 Following cartesian coordinates:
            Coordinates               Weight
  0.000000  0.000000  0.000000      1.000000
  0.019644 -0.000002 -0.000001      2.000000
  0.039288 -0.000003 -0.000002      1.000000
 -0.000001  0.019645 -0.000002      2.000000
  0.019642  0.019643 -0.000003      2.000000
  0.039286  0.019642 -0.000004      2.000000
 -0.019645  0.019647 -0.000001      2.000000
 -0.000003  0.039290 -0.000003      1.000000
  0.019641  0.039288 -0.000005      2.000000
  0.039285  0.039287 -0.000006      1.000000
 -0.000001 -0.000002  0.019642      2.000000
  0.019642 -0.000003  0.019641      2.000000
  0.039286 -0.000005  0.019640      2.000000
 -0.019645 -0.000000  0.019644      2.000000
 -0.000003  0.019643  0.019641      2.000000
  0.019641  0.019642  0.019639      2.000000
  0.039285  0.019640  0.019638      2.000000
 -0.019647  0.019645  0.019642      2.000000
 -0.000004  0.039288  0.019639      2.000000
  0.019640  0.039287  0.019638      2.000000
  0.039283  0.039285  0.019637      2.000000
 -0.019648  0.039290  0.019640      2.000000
  0.000000 -0.019647  0.019644      2.000000
  0.019644 -0.019648  0.019643      2.000000
  0.039288 -0.019650  0.019642      2.000000
 -0.019644 -0.019645  0.019645      2.000000
 -0.000003 -0.000004  0.039285      1.000000
  0.019641 -0.000005  0.039283      2.000000
  0.039285 -0.000007  0.039282      1.000000
 -0.000004  0.019641  0.039283      2.000000
  0.019640  0.019640  0.039282      2.000000
  0.039283  0.019638  0.039281      2.000000
 -0.019648  0.019643  0.039284      2.000000
 -0.000006  0.039286  0.039281      1.000000
  0.019638  0.039285  0.039280      2.000000
  0.039282  0.039283  0.039279      1.000000
 


--------------------------------------------------------------------------------------------------------




 Dimension of arrays:
   k-points           NKPTS =     36   k-points in BZ     NKDIM =     36   number of bands    NBANDS=    211
   number of dos      NEDOS =   3000   number of ions     NIONS =     48
   non local maximal  LDIM  =      6   non local SUM 2l+1 LMDIM =     18
   total plane-waves  NPLWV = 125000
   max r-space proj   IRMAX =      1   max aug-charges    IRDMAX=   5975
   dimension x,y,z NGX =    50 NGY =   50 NGZ =   50
   dimension x,y,z NGXF=   100 NGYF=  100 NGZF=  100
   support grid    NGXF=   100 NGYF=  100 NGZF=  100
   ions per type =               8   8  32
   NGX,Y,Z   is equivalent  to a cutoff of   6.53,  6.53,  6.53 a.u.
   NGXF,Y,Z  is equivalent  to a cutoff of  13.06, 13.06, 13.06 a.u.

 SYSTEM =  unknown system                          
 POSCAR =  Generation Seed Number                  

 Startparameter for this run:
   NWRITE =      2    write-flag & timer
   PREC   = normal    normal or accurate (medium, high low for compatibility)
   ISTART =      1    job   : 0-new  1-cont  2-samecut
   ICHARG =      1    charge: 1-file 2-atom 10-const
   ISPIN  =      1    spin polarized calculation?
   LNONCOLLINEAR =      F non collinear calculations
   LSORBIT =      F    spin-orbit coupling
   INIWAV =      1    electr: 0-lowe 1-rand  2-diag
   LASPH  =      F    aspherical Exc in radial PAW
   METAGGA=      F    non-selfconsistent MetaGGA calc.

 Electronic Relaxation 1
   ENCUT  =  250.0 eV  18.37 Ry    4.29 a.u.  16.41 16.41 16.41*2*pi/ulx,y,z
   ENINI  =  250.0     initial cutoff
   ENAUG  =  412.5 eV  augmentation charge cutoff
   NELM   =     60;   NELMIN=  2; NELMDL=  0     # of ELM steps 
   EDIFF  = 0.1E-05   stopping-criterion for ELM
   LREAL  =      F    real-space projection
   NLSPLINE    = F    spline interpolate recip. space projectors
   LCOMPAT=      F    compatible to vasp.4.4
   GGA_COMPAT  = T    GGA compatible to vasp.4.4-vasp.4.6
   LMAXPAW     = -100 max onsite density
   LMAXMIX     =    4 max onsite mixed and CHGCAR
   VOSKOWN=      0    Vosko Wilk Nusair interpolation
   ROPT   =    0.00000   0.00000   0.00000
 Ionic relaxation
   EDIFFG = -.1E-01   stopping-criterion for IOM
   NSW    =      0    number of steps for IOM
   NBLOCK =      1;   KBLOCK =      1    inner block; outer block 
   IBRION =     -1    ionic relax: 0-MD 1-quasi-New 2-CG
   NFREE  =      0    steps in history (QN), initial steepest desc. (CG)
   ISIF   =     -1    stress and relaxation
   IWAVPR =     10    prediction:  0-non 1-charg 2-wave 3-comb
   ISYM   =      2    0-nonsym 1-usesym 2-fastsym
   LCORR  =      T    Harris-Foulkes like correction to forces

   POTIM  = 0.5000    time-step for ionic-motion
   TEIN   =    0.0    initial temperature
   TEBEG  =    0.0;   TEEND  =   0.0 temperature during run
   SMASS  =  -3.00    Nose mass-parameter (am)
   estimated Nose-frequenzy (Omega)   =  0.10E-29 period in steps = 0.13E+47 mass=  -0.370E-26a.u.
   SCALEE = 1.0000    scale energy and forces
   NPACO  =    256;   APACO  = 16.0  distance and # of slots for P.C.
   PSTRESS=    0.0 pullay stress

  Mass of Ions in am
   POMASS = 107.87208.98126.90
  Ionic Valenz
   ZVAL   =  11.00  5.00  7.00
  Atomic Wigner-Seitz radii
   RWIGS  =  -1.00 -1.00 -1.00
  virtual crystal weights 
   VCA    =   1.00  1.00  1.00
   NELECT =     352.0000    total number of electrons
   NUPDOWN=      -1.0000    fix difference up-down

 DOS related values:
   EMIN   =  10.00;   EMAX   =-10.00  energy-range for DOS
   EFERMI =   0.00
   ISMEAR =    -5;   SIGMA  =   0.20  broadening in eV -4-tet -1-fermi 0-gaus

 Electronic relaxation 2 (details)
   IALGO  =     38    algorithm
   LDIAG  =      T    sub-space diagonalisation (order eigenvalues)
   LSUBROT=      F    optimize rotation matrix (better conditioning)
   TURBO    =      0    0=normal 1=particle mesh
   IRESTART =      0    0=no restart 2=restart with 2 vectors
   NREBOOT  =      0    no. of reboots
   NMIN     =      0    reboot dimension
   EREF     =   0.00    reference energy to select bands
   IMIX   =      4    mixing-type and parameters
     AMIX     =   0.40;   BMIX     =  1.00
     AMIX_MAG =   1.60;   BMIX_MAG =  1.00
     AMIN     =   0.10
     WC   =   100.;   INIMIX=   1;  MIXPRE=   1;  MAXMIX= -45

 Intra band minimization:
   WEIMIN = 0.0000     energy-eigenvalue tresh-hold
   EBREAK =  0.12E-08  absolut break condition
   DEPER  =   0.30     relativ break condition  

   TIME   =   0.40     timestep for ELM

  volume/ion in A,a.u.               =      42.94       289.81
  Fermi-wavevector in a.u.,A,eV,Ry     =   0.908250  1.716344 11.223691  0.824918
  Thomas-Fermi vector in A             =   2.032154
 
 Write flags
   LWAVE        =      T    write WAVECAR
   LDOWNSAMPLE  =      F    k-point downsampling of WAVECAR
   LCHARG       =      T    write CHGCAR
   LVTOT        =      F    write LOCPOT, total local potential
   LVHAR        =      F    write LOCPOT, Hartree potential only
   LELF         =      F    write electronic localiz. function (ELF)
   LORBIT       =     10    0 simple, 1 ext, 2 COOP (PROOUT), +10 PAW based schemes


 Dipole corrections
   LMONO  =      F    monopole corrections only (constant potential shift)
   LDIPOL =      F    correct potential (dipole corrections)
   IDIPOL =      0    1-x, 2-y, 3-z, 4-all directions 
   EPSILON=  1.0000000 bulk dielectric constant

 Exchange correlation treatment:
   GGA     =    --    GGA type
   LEXCH   =     8    internal setting for exchange type
   VOSKOWN=      0    Vosko Wilk Nusair interpolation
   LHFCALC =     F    Hartree Fock is set to
   LHFONE  =     F    Hartree Fock one center treatment
   AEXX    =    0.0000 exact exchange contribution

 Linear response parameters
   LEPSILON=     F    determine dielectric tensor
   LRPA    =     F    only Hartree local field effects (RPA)
   LNABLA  =     F    use nabla operator in PAW spheres
   LVEL    =     F    velocity operator in full k-point grid
   LINTERFAST=   F  fast interpolation
   KINTER  =     0    interpolate to denser k-point grid
   CSHIFT  =0.1000    complex shift for real part using Kramers Kronig
   OMEGAMAX=  -1.0    maximum frequency
   DEG_THRESHOLD= 0.2000000E-02 threshold for treating states as degnerate
   RTIME   =   -0.100 relaxation time in fs
  (WPLASMAI=    0.000 imaginary part of plasma frequency in eV, 0.658/RTIME)
   DFIELD  = 0.0000000 0.0000000 0.0000000 field for delta impulse in time
 
 Orbital magnetization related:
   ORBITALMAG=     F  switch on orbital magnetization
   LCHIMAG   =     F  perturbation theory with respect to B field
   DQ        =  0.001000  dq finite difference perturbation B field
   LLRAUG    =     F  two centre corrections for induced B field



--------------------------------------------------------------------------------------------------------


 Static calculation
 charge density and potential will be updated during run
 non-spin polarized calculation
 Variant of blocked Davidson
 Davidson routine will perform the subspace rotation
 perform sub-space diagonalisation
    after iterative eigenvector-optimisation
 modified Broyden-mixing scheme, WC =      100.0
 initial mixing is a Kerker type mixing with AMIX =  0.4000 and BMIX =      1.0000
 Hartree-type preconditioning will be used
 using additional bands           35
 reciprocal scheme for non local part
 use partial core corrections
 calculate Harris-corrections to forces 
   (improved forces if not selfconsistent)
 use gradient corrections 
 use of overlap-Matrix (Vanderbilt PP)
 Fermi weights with tetrahedron method with Bloechl corrections


--------------------------------------------------------------------------------------------------------


  energy-cutoff  :      250.00
  volume of cell :     2061.35
      direct lattice vectors                 reciprocal lattice vectors
    12.726676858  0.000949044  0.000843955     0.078575108 -0.000006282 -0.000004747
     0.001017556 12.725902495  0.001181124    -0.000005859  0.078579890 -0.000006763
     0.000768942  0.001095450 12.727625034    -0.000005210 -0.000007292  0.078569255

  length of vectors
    12.726676922 12.725902590 12.727625104     0.078575109  0.078579890  0.078569255


 
 old parameters found on file WAVECAR:
  energy-cutoff  :      250.00
  volume of cell :     2061.35
      direct lattice vectors                 reciprocal lattice vectors
    12.726676858  0.000949044  0.000843955     0.078575108 -0.000006282 -0.000004747
     0.001017556 12.725902495  0.001181124    -0.000005859  0.078579890 -0.000006763
     0.000768942  0.001095450 12.727625034    -0.000005210 -0.000007292  0.078569255

  length of vectors

 
 k-points in units of 2pi/SCALE and weight: agbii                                   
   0.00000000  0.00000000  0.00000000       0.016
   0.01964378 -0.00000157 -0.00000119       0.031
   0.03928755 -0.00000314 -0.00000237       0.016
  -0.00000146  0.01964497 -0.00000169       0.031
   0.01964231  0.01964340 -0.00000288       0.031
   0.03928609  0.01964183 -0.00000406       0.031
  -0.01964524  0.01964654 -0.00000050       0.031
  -0.00000293  0.03928994 -0.00000338       0.016
   0.01964085  0.03928837 -0.00000457       0.031
   0.03928462  0.03928680 -0.00000575       0.016
  -0.00000130 -0.00000182  0.01964231       0.031
   0.01964247 -0.00000339  0.01964113       0.031
   0.03928625 -0.00000496  0.01963994       0.031
  -0.01964508 -0.00000025  0.01964350       0.031
  -0.00000277  0.01964315  0.01964062       0.031
   0.01964101  0.01964158  0.01963944       0.031
   0.03928479  0.01964001  0.01963825       0.031
  -0.01964654  0.01964472  0.01964181       0.031
  -0.00000423  0.03928812  0.01963893       0.031
   0.01963954  0.03928655  0.01963775       0.031
   0.03928332  0.03928498  0.01963656       0.031
  -0.01964801  0.03928969  0.01964012       0.031
   0.00000016 -0.01964680  0.01964400       0.031
   0.01964394 -0.01964837  0.01964282       0.031
   0.03928772 -0.01964994  0.01964163       0.031
  -0.01964361 -0.01964522  0.01964519       0.031
  -0.00000260 -0.00000365  0.03928463       0.016
   0.01964117 -0.00000522  0.03928344       0.031
   0.03928495 -0.00000679  0.03928225       0.016
  -0.00000407  0.01964133  0.03928294       0.031
   0.01963971  0.01963976  0.03928175       0.031
   0.03928348  0.01963819  0.03928056       0.031
  -0.01964785  0.01964290  0.03928412       0.031
  -0.00000553  0.03928630  0.03928125       0.016
   0.01963824  0.03928473  0.03928006       0.031
   0.03928202  0.03928316  0.03927887       0.016
 
 k-points in reciprocal lattice and weights: agbii                                   
   0.00000000  0.00000000  0.00000000       0.016
   0.25000000 -0.00000000  0.00000000       0.031
   0.50000000 -0.00000000 -0.00000000       0.016
  -0.00000000  0.25000000  0.00000000       0.031
   0.25000000  0.25000000 -0.00000000       0.031
   0.50000000  0.25000000  0.00000000       0.031
  -0.25000000  0.25000000 -0.00000000       0.031
  -0.00000000  0.50000000  0.00000000       0.016
   0.25000000  0.50000000 -0.00000000       0.031
   0.50000000  0.50000000  0.00000000       0.016
  -0.00000000 -0.00000000  0.25000000       0.031
   0.25000000 -0.00000000  0.25000000       0.031
   0.50000000 -0.00000000  0.25000000       0.031
  -0.25000000 -0.00000000  0.25000000       0.031
   0.00000000  0.25000000  0.25000000       0.031
   0.25000000  0.25000000  0.25000000       0.031
   0.50000000  0.25000000  0.25000000       0.031
  -0.25000000  0.25000000  0.25000000       0.031
  -0.00000000  0.50000000  0.25000000       0.031
   0.25000000  0.50000000  0.25000000       0.031
   0.50000000  0.50000000  0.25000000       0.031
  -0.25000000  0.50000000  0.25000000       0.031
   0.00000000 -0.25000000  0.25000000       0.031
   0.25000000 -0.25000000  0.25000000       0.031
   0.50000000 -0.25000000  0.25000000       0.031
  -0.25000000 -0.25000000  0.25000000       0.031
  -0.00000000 -0.00000000  0.50000000       0.016
   0.25000000  0.00000000  0.50000000       0.031
   0.50000000 -0.00000000  0.50000000       0.016
   0.00000000  0.25000000  0.50000000       0.031
   0.25000000  0.25000000  0.50000000       0.031
   0.50000000  0.25000000  0.50000000       0.031
  -0.25000000  0.25000000  0.50000000       0.031
   0.00000000  0.50000000  0.50000000       0.016
   0.25000000  0.50000000  0.50000000       0.031
   0.50000000  0.50000000  0.50000000       0.016
 
 position of ions in fractional coordinates (direct lattice) 
   0.24483052  0.27470895  0.01226729
   0.47504327  0.49986625  0.02476575
   0.00151611  0.24866494  0.25312321
   0.00530243  0.77457466  0.74015670
   0.77541138  0.99991275  0.72448778
   0.48837060  0.72512017  0.25514696
   0.75913857  0.22526215  0.49451497
   0.24694130  0.74833749  0.49795301
   0.00150672  0.00364864  0.99884581
   0.74778649  0.75002090  0.99806471
   0.99932300  0.49987884  0.50020865
   0.24944694  0.99988107  0.25061020
   0.50092835  0.99591903  0.49858962
   0.74900935  0.49645697  0.25130255
   0.50154112  0.24953408  0.75210320
   0.24837367  0.50307425  0.75082465
   0.24671564  0.99320242  0.00387605
   0.24968823  0.00669924  0.49492269
   0.24416966  0.50782281  0.99096413
   0.24409727  0.49285924  0.49959197
   0.75481554  0.99605111  0.01063211
   0.74107353  0.99133040  0.49444117
   0.75993563  0.50369119  0.00481803
   0.75295873  0.50654074  0.49677635
   0.00656841  0.24154453  0.01062431
   0.98813268  0.25566354  0.49075752
   0.99773676  0.75262135  0.98640361
   0.00903155  0.74405143  0.51115478
   0.48933312  0.27003539  0.99246791
   0.51370174  0.24707692  0.50216178
   0.50740349  0.72952627  0.00988109
   0.48905278  0.75810700  0.49369334
   0.00489154  0.99297110  0.25024789
   0.00559005  0.00822879  0.75880559
   0.00002885  0.50689782  0.25565542
   0.00299264  0.49323240  0.74669690
   0.49602211  0.00670953  0.25327912
   0.48900739  0.00347629  0.74513506
   0.50873614  0.49178316  0.25549294
   0.49497688  0.49584250  0.73996144
   0.23860097  0.24409443  0.24114563
   0.25175800  0.25278603  0.76150287
   0.25932665  0.75570008  0.26105344
   0.24439926  0.74143029  0.73824709
   0.76144091  0.25817669  0.25509745
   0.74176812  0.22880179  0.74222231
   0.73765714  0.74689821  0.24796903
   0.75815923  0.77072329  0.75790341
 
 position of ions in cartesian coordinates  (Angst):
   3.11616792  3.49616514  0.15666451
   6.04624982  6.36172710  0.31620052
   0.01974266  3.16476456  3.22195234
   0.06883968  9.85797744  9.42135630
   9.86998465 12.72632176  9.22284425
   6.21626888  9.22855154  3.24868343
   9.66192077  2.86792630  6.29490780
   3.14388647  9.52404976  6.33885146
   0.01994732  0.04752784 12.71294048
   9.51836765  9.54649581 12.70451041
  12.71895417  6.36290577  6.36790195
   3.17584068 12.72490025  3.19106413
   6.37655000 12.67499005  6.34746075
   9.53309836  6.31884910  3.19970311
   6.38378400  3.17684627  9.57320547
   3.16206071  6.40313207  9.55701844
   3.14088389 12.63963560  0.05071418
   3.17808878  0.08603296  6.29940905
   3.10874705  6.46382082 12.61342570
   3.10743270  6.27285752  6.35940734
   9.60731515 12.67637734  0.13713495
   9.43279232 12.61681898  6.29485815
   9.67197140  6.41065143  0.06255831
   9.58355988  6.44744684  6.32401685
   0.08384795  3.07389000  0.13551311
  12.57628289  3.25502464  6.24731359
  12.69939765  9.57981343 12.55630629
   0.11609179  9.46929442  6.50667288
   6.22862238  3.43799567 12.63249136
   6.53835357  3.14531436  6.39205226
   6.45831016  9.28437249  0.12705275
   6.22516776  9.64860076  6.28485189
   0.06345590 12.63673215  3.18623823
   0.07173463  0.10555531  9.65780747
   0.00107957  6.45101231  3.25448510
   0.03916245  6.27764822  9.50426323
   6.31291474  0.08613309  3.22406824
   6.22401557  0.04551922  9.48421649
   6.47521735  6.25914725  3.25282860
   6.30048428  6.31132369  9.41895515
   3.03703125  3.10681253  3.06970089
   3.20488553  3.21800346  9.69263410
   3.30133614  9.61749762  3.32370174
   3.11171252  9.43641024  9.39721408
   9.69107123  3.28653342  3.24773225
   9.44104671  2.91322633  9.44762346
   9.38887472  9.50592553  3.15756154
   9.65021458  9.80969921  9.64786063
 


--------------------------------------------------------------------------------------------------------


 k-point   1 :   0.0000 0.0000 0.0000  plane waves:   18613
 k-point   2 :   0.2500-0.0000 0.0000  plane waves:   18533
 k-point   3 :   0.5000-0.0000-0.0000  plane waves:   18484
 k-point   4 :  -0.0000 0.2500 0.0000  plane waves:   18533
 k-point   5 :   0.2500 0.2500-0.0000  plane waves:   18509
 k-point   6 :   0.5000 0.2500 0.0000  plane waves:   18506
 k-point   7 :  -0.2500 0.2500-0.0000  plane waves:   18509
 k-point   8 :  -0.0000 0.5000 0.0000  plane waves:   18486
 k-point   9 :   0.2500 0.5000-0.0000  plane waves:   18506
 k-point  10 :   0.5000 0.5000 0.0000  plane waves:   18528
 k-point  11 :  -0.0000-0.0000 0.2500  plane waves:   18533
 k-point  12 :   0.2500-0.0000 0.2500  plane waves:   18509
 k-point  13 :   0.5000-0.0000 0.2500  plane waves:   18506
 k-point  14 :  -0.2500-0.0000 0.2500  plane waves:   18509
 k-point  15 :   0.0000 0.2500 0.2500  plane waves:   18509
 k-point  16 :   0.2500 0.2500 0.2500  plane waves:   18505
 k-point  17 :   0.5000 0.2500 0.2500  plane waves:   18478
 k-point  18 :  -0.2500 0.2500 0.2500  plane waves:   18519
 k-point  19 :  -0.0000 0.5000 0.2500  plane waves:   18506
 k-point  20 :   0.2500 0.5000 0.2500  plane waves:   18478
 k-point  21 :   0.5000 0.5000 0.2500  plane waves:   18500
 k-point  22 :  -0.2500 0.5000 0.2500  plane waves:   18478
 k-point  23 :   0.0000-0.2500 0.2500  plane waves:   18509
 k-point  24 :   0.2500-0.2500 0.2500  plane waves:   18525
 k-point  25 :   0.5000-0.2500 0.2500  plane waves:   18478
 k-point  26 :  -0.2500-0.2500 0.2500  plane waves:   18518
 k-point  27 :  -0.0000-0.0000 0.5000  plane waves:   18480
 k-point  28 :   0.2500 0.0000 0.5000  plane waves:   18506
 k-point  29 :   0.5000-0.0000 0.5000  plane waves:   18528
 k-point  30 :   0.0000 0.2500 0.5000  plane waves:   18506
 k-point  31 :   0.2500 0.2500 0.5000  plane waves:   18478
 k-point  32 :   0.5000 0.2500 0.5000  plane waves:   18500
 k-point  33 :  -0.2500 0.2500 0.5000  plane waves:   18478
 k-point  34 :   0.0000 0.5000 0.5000  plane waves:   18528
 k-point  35 :   0.2500 0.5000 0.5000  plane waves:   18500
 k-point  36 :   0.5000 0.5000 0.5000  plane waves:   18504

 maximum and minimum number of plane-waves per node :     18613    18478

 maximum number of plane-waves:     18613
 maximum index in each direction: 
   IXMAX=   16   IYMAX=   16   IZMAX=   16
   IXMIN=  -16   IYMIN=  -16   IZMIN=  -16


 serial   3D FFT for wavefunctions
 parallel 3D FFT for charge:
    minimum data exchange during FFTs selected (reduces bandwidth)


 total amount of memory used by VASP MPI-rank0  2782079. kBytes
=======================================================================

   base      :      30000. kBytes
   nonl-proj :     303764. kBytes
   fftplans  :      34720. kBytes
   grid      :      70000. kBytes
   one-center:        746. kBytes
   wavefun   :    2342849. kBytes
 
     INWAV:  cpu time    4.5067: real time    4.9971
 Broyden mixing: mesh for mixing (old mesh)
   NGX = 33   NGY = 33   NGZ = 33
  (NGX  =100   NGY  =100   NGZ  =100)
  gives a total of  35937 points

 initial charge density was supplied:
 number of electron     352.0000542 magnetization 
 keeping initial charge density in first step


--------------------------------------------------------------------------------------------------------


 Maximum index for augmentation-charges         5607 (set IRDMAX)


--------------------------------------------------------------------------------------------------------


 First call to EWALD:  gamma=   0.139
 Maximum number of real-space cells 3x 3x 3
 Maximum number of reciprocal cells 3x 3x 3

    FEWALD:  cpu time    0.0026: real time    0.0026


--------------------------------------- Iteration      1(   1)  ---------------------------------------


    POTLOK:  cpu time    0.5741: real time    0.5933
    SETDIJ:  cpu time    0.0274: real time    0.0274
     EDDAV:  cpu time   57.3059: real time   57.3048
 BZINTS: Fermi energy:    2.053790;  352.000000 electrons
         Band energy:-0.758828E+03;  BLOECHL correction:    0.000000
       DOS:  cpu time    0.0541: real time    0.0541
    CHARGE:  cpu time    1.2297: real time    1.2297
    MIXING:  cpu time    0.0285: real time    0.0285
    --------------------------------------------
      LOOP:  cpu time   59.2199: real time   59.2379

 eigenvalue-minimisations  :  9832
 total energy-change (2. order) :-0.1199642E+03  (-0.2398149E-06)
 number of electron     352.0000542 magnetization 
 augmentation part      -23.1222028 magnetization 

 Broyden mixing:
  rms(total) = 0.66281E-03    rms(broyden)= 0.66278E-03
  rms(prec ) = 0.77733E-03
  weight for this iteration     100.00

 Free energy of the ion-electron system (eV)
  ---------------------------------------------------
  alpha Z        PSCENC =       225.91950216
  Ewald energy   TEWEN  =    -13868.96091171
  -Hartree energ DENC   =     -6079.94494814
  -exchange      EXHF   =         0.00000000
  -V(xc)+E(xc)   XCENC  =     -1392.36532562
  PAW double counting   =     22639.94558979   -20497.45430445
  entropy T*S    EENTRO =         0.00000000
  eigenvalues    EBANDS =      -758.82754778
  atomic energy  EATOM  =     19611.72375700
  Solvation  Ediel_sol  =         0.00000000
  ---------------------------------------------------
  free energy    TOTEN  =      -119.96418876 eV

  energy without entropy =     -119.96418876  energy(sigma->0) =     -119.96418876


--------------------------------------------------------------------------------------------------------




--------------------------------------- Iteration      1(   2)  ---------------------------------------


    POTLOK:  cpu time    0.5586: real time    0.5587
    SETDIJ:  cpu time    0.0558: real time    0.0558
     EDDAV:  cpu time   50.7569: real time   50.7557
 BZINTS: Fermi energy:    2.054017;  352.000000 electrons
         Band energy:-0.758828E+03;  BLOECHL correction:    0.000000
       DOS:  cpu time    0.0541: real time    0.0541
    --------------------------------------------
      LOOP:  cpu time   51.4254: real time   51.4243

 eigenvalue-minimisations  :  8208
 total energy-change (2. order) : 0.4429239E-07  (-0.1119588E-06)
 number of electron     352.0000542 magnetization 
 augmentation part      -23.1222028 magnetization 

 Free energy of the ion-electron system (eV)
  ---------------------------------------------------
  alpha Z        PSCENC =       225.91950216
  Ewald energy   TEWEN  =    -13868.96091171
  -Hartree energ DENC   =     -6079.94403035
  -exchange      EXHF   =         0.00000000
  -V(xc)+E(xc)   XCENC  =     -1392.36480496
  PAW double counting   =     22639.51635849   -20497.02575397
  entropy T*S    EENTRO =         0.00000000
  eigenvalues    EBANDS =      -758.82830537
  atomic energy  EATOM  =     19611.72375700
  Solvation  Ediel_sol  =         0.00000000
  ---------------------------------------------------
  free energy    TOTEN  =      -119.96418871 eV

  energy without entropy =     -119.96418871  energy(sigma->0) =     -119.96418871


--------------------------------------------------------------------------------------------------------




 average (electrostatic) potential at core
  the test charge radii are     1.1249  1.4024  1.1875
  (the norm of the test charge is              1.0000)
       1 -75.0699       2 -75.1912       3 -75.0035       4 -75.0620       5 -75.1913
       6 -75.0686       7 -75.0617       8 -75.0033       9 -65.5344      10 -65.4777
      11 -65.5043      12 -65.5076      13 -65.5342      14 -65.5309      15 -65.4774
      16 -65.5305      17 -93.3358      18 -93.3160      19 -93.2333      20 -93.3218
      21 -93.3192      22 -93.2318      23 -93.3242      24 -93.3357      25 -93.0827
      26 -92.9992      27 -93.1922      28 -92.9973      29 -93.1014      30 -93.1962
      31 -93.0960      32 -93.0849      33 -93.3241      34 -93.2353      35 -93.3144
      36 -93.3332      37 -93.3373      38 -93.3210      39 -93.2296      40 -93.3226
      41 -93.0097      42 -93.1747      43 -93.0111      44 -93.0761      45 -93.0790
      46 -93.0778      47 -93.1794      48 -93.0822
 
 
 
 E-fermi :   2.0540     XC(G=0):  -7.7998     alpha+bet : -7.7649


 k-point     1 :       0.0000    0.0000    0.0000
  band No.  band energies     occupation 
      1     -10.8457      2.00000
      2     -10.7166      2.00000
      3     -10.6709      2.00000
      4     -10.5363      2.00000
      5     -10.4824      2.00000
      6     -10.2578      2.00000
      7     -10.2238      2.00000
      8     -10.0446      2.00000
      9      -9.8902      2.00000
     10      -9.8821      2.00000
     11      -9.8688      2.00000
     12      -9.8512      2.00000
     13      -9.8459      2.00000
     14      -9.8084      2.00000
     15      -9.8066      2.00000
     16      -9.7425      2.00000
     17      -9.7318      2.00000
     18      -9.7158      2.00000
     19      -9.7069      2.00000
     20      -9.7042      2.00000
     21      -9.6840      2.00000
     22      -9.6618      2.00000
     23      -9.6543      2.00000
     24      -9.6266      2.00000
     25      -9.6150      2.00000
     26      -9.6079      2.00000
     27      -9.5894      2.00000
     28      -9.5637      2.00000
     29      -9.5548      2.00000
     30      -9.5503      2.00000
     31      -9.5425      2.00000
     32      -9.5111      2.00000
     33      -8.2241      2.00000
     34      -8.1243      2.00000
     35      -8.1140      2.00000
     36      -7.8834      2.00000
     37      -7.8574      2.00000
     38      -7.6470      2.00000
     39      -7.6325      2.00000
     40      -7.6317      2.00000
     41      -1.8225      2.00000
     42      -1.7627      2.00000
     43      -1.7192      2.00000
     44      -1.7045      2.00000
     45      -1.6565      2.00000
     46      -1.5886      2.00000
     47      -1.5327      2.00000
     48      -1.4782      2.00000
     49      -1.4726      2.00000
     50      -1.4399      2.00000
     51      -1.4363      2.00000
     52      -1.3950      2.00000
     53      -1.3572      2.00000
     54      -1.3285      2.00000
     55      -1.3206      2.00000
     56      -1.2788      2.00000
     57      -1.2359      2.00000
     58      -1.2263      2.00000
     59      -1.1583      2.00000
     60      -1.1133      2.00000
     61      -1.1023      2.00000
     62      -1.0673      2.00000
     63      -1.0219      2.00000
     64      -1.0205      2.00000
     65      -1.0181      2.00000
     66      -1.0014      2.00000
     67      -0.9886      2.00000
     68      -0.9860      2.00000
     69      -0.9640      2.00000
     70      -0.9240      2.00000
     71      -0.9203      2.00000
     72      -0.9192      2.00000
     73      -0.8884      2.00000
     74      -0.8530      2.00000
     75      -0.8477      2.00000
     76      -0.8218      2.00000
     77      -0.8136      2.00000
     78      -0.8081      2.00000
     79      -0.7820      2.00000
     80      -0.7344      2.00000
     81      -0.7034      2.00000
     82      -0.6999      2.00000
     83      -0.6631      2.00000
     84      -0.6430      2.00000
     85      -0.6329      2.00000
     86      -0.6181      2.00000
     87      -0.5804      2.00000
     88      -0.5539      2.00000
     89      -0.5431      2.00000
     90      -0.5091      2.00000
     91      -0.4897      2.00000
     92      -0.4732      2.00000
     93      -0.4660      2.00000
     94      -0.4186      2.00000
     95      -0.4028      2.00000
     96      -0.3765      2.00000
     97      -0.3576      2.00000
     98      -0.3530      2.00000
     99      -0.3308      2.00000
    100      -0.3238      2.00000
    101      -0.2889      2.00000
    102      -0.2669      2.00000
    103      -0.2597      2.00000
    104      -0.2286      2.00000
    105      -0.2124      2.00000
    106      -0.2047      2.00000
    107      -0.1766      2.00000
    108      -0.1577      2.00000
    109      -0.1309      2.00000
    110      -0.1212      2.00000
    111      -0.0642      2.00000
    112      -0.0504      2.00000
    113       0.0747      2.00000
    114       0.1247      2.00000
    115       0.1635      2.00000
    116       0.1754      2.00000
    117       0.1811      2.00000
    118       0.2117      2.00000
    119       0.2347      2.00000
    120       0.2414      2.00000
    121       0.2525      2.00000
    122       0.2870      2.00000
    123       0.3508      2.00000
    124       0.3958      2.00000
    125       0.3960      2.00000
    126       0.4141      2.00000
    127       0.4778      2.00000
    128       0.5160      2.00000
    129       0.5255      2.00000
    130       0.5260      2.00000
    131       0.5405      2.00000
    132       0.5485      2.00000
    133       0.5824      2.00000
    134       0.6361      2.00000
    135       0.6908      2.00000
    136       0.7053      2.00000
    137       0.7089      2.00000
    138       0.7154      2.00000
    139       0.7248      2.00000
    140       0.7766      2.00000
    141       0.7841      2.00000
    142       0.7899      2.00000
    143       0.8189      2.00000
    144       0.8363      2.00000
    145       0.8451      2.00000
    146       0.8883      2.00000
    147       0.9367      2.00000
    148       0.9606      2.00000
    149       0.9861      2.00000
    150       1.0267      2.00000
    151       1.0626      2.00000
    152       1.0909      2.00000
    153       1.1011      2.00000
    154       1.1470      2.00000
    155       1.1611      2.00000
    156       1.1694      2.00000
    157       1.1929      2.00000
    158       1.2018      2.00000
    159       1.2372      2.00000
    160       1.3046      2.00000
    161       1.3560      2.00000
    162       1.3989      2.00000
    163       1.4537      2.00000
    164       1.4824      2.00000
    165       1.5303      2.00000
    166       1.5440      2.00000
    167       1.5697      2.00000
    168       1.5964      2.00000
    169       1.7534      2.00000
    170       1.7586      2.00000
    171       1.8717      2.00000
    172       1.8875      2.00000
    173       1.9990      2.00000
    174       2.0086      2.00000
    175       2.0252      2.00000
    176       2.0538      2.00000
    177       3.8344      0.00000
    178       3.9977      0.00000
    179       4.0037      0.00000
    180       4.1180      0.00000
    181       4.1570      0.00000
    182       4.3393      0.00000
    183       4.3401      0.00000
    184       4.3884      0.00000
    185       4.4200      0.00000
    186       4.4349      0.00000
    187       4.5155      0.00000
    188       4.5276      0.00000
    189       4.5521      0.00000
    190       4.5621      0.00000
    191       4.5970      0.00000
    192       4.6043      0.00000
    193       4.6402      0.00000
    194       4.6982      0.00000
    195       4.7290      0.00000
    196       4.7314      0.00000
    197       4.7949      0.00000
    198       4.8249      0.00000
    199       4.8319      0.00000
    200       4.9496      0.00000
    201       5.0696      0.00000
    202       5.2671      0.00000
    203       5.5751      0.00000
    204       5.7181      0.00000
    205       5.9102      0.00000
    206       5.9300      0.00000
    207       5.9459      0.00000
    208       5.9835      0.00000
    209       7.1542      0.00000
    210       7.2600      0.00000
    211       7.2702      0.00000

 k-point     2 :       0.2500   -0.0000    0.0000
  band No.  band energies     occupation 
      1     -10.8309      2.00000
      2     -10.7223      2.00000
      3     -10.6913      2.00000
      4     -10.5335      2.00000
      5     -10.4791      2.00000
      6     -10.2564      2.00000
      7     -10.2128      2.00000
      8     -10.0553      2.00000
      9      -9.8948      2.00000
     10      -9.8903      2.00000
     11      -9.8747      2.00000
     12      -9.8523      2.00000
     13      -9.8478      2.00000
     14      -9.7990      2.00000
     15      -9.7873      2.00000
     16      -9.7453      2.00000
     17      -9.7316      2.00000
     18      -9.7180      2.00000
     19      -9.6994      2.00000
     20      -9.6945      2.00000
     21      -9.6908      2.00000
     22      -9.6607      2.00000
     23      -9.6498      2.00000
     24      -9.6332      2.00000
     25      -9.6125      2.00000
     26      -9.6099      2.00000
     27      -9.5846      2.00000
     28      -9.5685      2.00000
     29      -9.5570      2.00000
     30      -9.5516      2.00000
     31      -9.5407      2.00000
     32      -9.5167      2.00000
     33      -8.2294      2.00000
     34      -8.1216      2.00000
     35      -8.1132      2.00000
     36      -7.8823      2.00000
     37      -7.8579      2.00000
     38      -7.6795      2.00000
     39      -7.6302      2.00000
     40      -7.6019      2.00000
     41      -1.8008      2.00000
     42      -1.7477      2.00000
     43      -1.7183      2.00000
     44      -1.6903      2.00000
     45      -1.6502      2.00000
     46      -1.6103      2.00000
     47      -1.5620      2.00000
     48      -1.5472      2.00000
     49      -1.4948      2.00000
     50      -1.4514      2.00000
     51      -1.3965      2.00000
     52      -1.3848      2.00000
     53      -1.3503      2.00000
     54      -1.3231      2.00000
     55      -1.3011      2.00000
     56      -1.2726      2.00000
     57      -1.2249      2.00000
     58      -1.2026      2.00000
     59      -1.1795      2.00000
     60      -1.1314      2.00000
     61      -1.1175      2.00000
     62      -1.0851      2.00000
     63      -1.0520      2.00000
     64      -1.0355      2.00000
     65      -1.0202      2.00000
     66      -1.0008      2.00000
     67      -0.9789      2.00000
     68      -0.9669      2.00000
     69      -0.9477      2.00000
     70      -0.9367      2.00000
     71      -0.9162      2.00000
     72      -0.9044      2.00000
     73      -0.8873      2.00000
     74      -0.8736      2.00000
     75      -0.8397      2.00000
     76      -0.8192      2.00000
     77      -0.8131      2.00000
     78      -0.8100      2.00000
     79      -0.7646      2.00000
     80      -0.7555      2.00000
     81      -0.7067      2.00000
     82      -0.6816      2.00000
     83      -0.6611      2.00000
     84      -0.6487      2.00000
     85      -0.6312      2.00000
     86      -0.5926      2.00000
     87      -0.5827      2.00000
     88      -0.5558      2.00000
     89      -0.5126      2.00000
     90      -0.4991      2.00000
     91      -0.4809      2.00000
     92      -0.4737      2.00000
     93      -0.4440      2.00000
     94      -0.4194      2.00000
     95      -0.4002      2.00000
     96      -0.3902      2.00000
     97      -0.3746      2.00000
     98      -0.3687      2.00000
     99      -0.3436      2.00000
    100      -0.3162      2.00000
    101      -0.3046      2.00000
    102      -0.2845      2.00000
    103      -0.2281      2.00000
    104      -0.2246      2.00000
    105      -0.2105      2.00000
    106      -0.1802      2.00000
    107      -0.1621      2.00000
    108      -0.1597      2.00000
    109      -0.1479      2.00000
    110      -0.1355      2.00000
    111      -0.1020      2.00000
    112      -0.0529      2.00000
    113       0.0805      2.00000
    114       0.1087      2.00000
    115       0.1309      2.00000
    116       0.1469      2.00000
    117       0.1769      2.00000
    118       0.2268      2.00000
    119       0.2464      2.00000
    120       0.2631      2.00000
    121       0.2850      2.00000
    122       0.3347      2.00000
    123       0.3501      2.00000
    124       0.3551      2.00000
    125       0.4162      2.00000
    126       0.4454      2.00000
    127       0.4644      2.00000
    128       0.5099      2.00000
    129       0.5250      2.00000
    130       0.5536      2.00000
    131       0.5651      2.00000
    132       0.5911      2.00000
    133       0.6001      2.00000
    134       0.6249      2.00000
    135       0.6473      2.00000
    136       0.6853      2.00000
    137       0.6984      2.00000
    138       0.7171      2.00000
    139       0.7531      2.00000
    140       0.7594      2.00000
    141       0.7742      2.00000
    142       0.8116      2.00000
    143       0.8177      2.00000
    144       0.8307      2.00000
    145       0.8628      2.00000
    146       0.8959      2.00000
    147       0.9706      2.00000
    148       0.9866      2.00000
    149       0.9907      2.00000
    150       1.0096      2.00000
    151       1.0185      2.00000
    152       1.0775      2.00000
    153       1.1239      2.00000
    154       1.1473      2.00000
    155       1.1511      2.00000
    156       1.1530      2.00000
    157       1.1863      2.00000
    158       1.2087      2.00000
    159       1.2412      2.00000
    160       1.2935      2.00000
    161       1.3523      2.00000
    162       1.4069      2.00000
    163       1.4641      2.00000
    164       1.4778      2.00000
    165       1.5240      2.00000
    166       1.5480      2.00000
    167       1.5958      2.00000
    168       1.6175      2.00000
    169       1.7489      2.00000
    170       1.7624      2.00000
    171       1.8493      2.00000
    172       1.8743      2.00000
    173       1.9644      2.00000
    174       1.9737      2.00000
    175       2.0049      2.00000
    176       2.0164      2.00000
    177       3.8938      0.00000
    178       3.9844      0.00000
    179       4.0253      0.00000
    180       4.1399      0.00000
    181       4.1610      0.00000
    182       4.2981      0.00000
    183       4.3177      0.00000
    184       4.3892      0.00000
    185       4.4223      0.00000
    186       4.4456      0.00000
    187       4.4654      0.00000
    188       4.5036      0.00000
    189       4.5742      0.00000
    190       4.5811      0.00000
    191       4.5936      0.00000
    192       4.6218      0.00000
    193       4.6474      0.00000
    194       4.6547      0.00000
    195       4.6945      0.00000
    196       4.7548      0.00000
    197       4.7816      0.00000
    198       4.8236      0.00000
    199       4.8539      0.00000
    200       4.9285      0.00000
    201       5.1965      0.00000
    202       5.3515      0.00000
    203       5.5858      0.00000
    204       5.7303      0.00000
    205       5.8077      0.00000
    206       5.8281      0.00000
    207       5.9494      0.00000
    208       5.9629      0.00000
    209       7.2659      0.00000
    210       7.2999      0.00000
    211       7.3697      0.00000

 k-point     3 :       0.5000   -0.0000   -0.0000
  band No.  band energies     occupation 
      1     -10.8071      2.00000
      2     -10.7465      2.00000
      3     -10.7004      2.00000
      4     -10.5319      2.00000
      5     -10.4761      2.00000
      6     -10.2564      2.00000
      7     -10.2002      2.00000
      8     -10.0654      2.00000
      9      -9.8988      2.00000
     10      -9.8984      2.00000
     11      -9.8786      2.00000
     12      -9.8542      2.00000
     13      -9.8491      2.00000
     14      -9.7881      2.00000
     15      -9.7695      2.00000
     16      -9.7472      2.00000
     17      -9.7384      2.00000
     18      -9.7119      2.00000
     19      -9.7027      2.00000
     20      -9.6972      2.00000
     21      -9.6738      2.00000
     22      -9.6682      2.00000
     23      -9.6429      2.00000
     24      -9.6247      2.00000
     25      -9.6207      2.00000
     26      -9.6160      2.00000
     27      -9.5814      2.00000
     28      -9.5769      2.00000
     29      -9.5552      2.00000
     30      -9.5506      2.00000
     31      -9.5346      2.00000
     32      -9.5284      2.00000
     33      -8.2345      2.00000
     34      -8.1206      2.00000
     35      -8.1103      2.00000
     36      -7.8817      2.00000
     37      -7.8580      2.00000
     38      -7.6964      2.00000
     39      -7.6277      2.00000
     40      -7.5876      2.00000
     41      -1.7643      2.00000
     42      -1.7463      2.00000
     43      -1.6969      2.00000
     44      -1.6735      2.00000
     45      -1.6604      2.00000
     46      -1.6407      2.00000
     47      -1.5918      2.00000
     48      -1.5714      2.00000
     49      -1.5221      2.00000
     50      -1.4502      2.00000
     51      -1.4214      2.00000
     52      -1.3826      2.00000
     53      -1.3146      2.00000
     54      -1.3087      2.00000
     55      -1.2921      2.00000
     56      -1.2546      2.00000
     57      -1.2371      2.00000
     58      -1.1913      2.00000
     59      -1.1810      2.00000
     60      -1.1633      2.00000
     61      -1.1520      2.00000
     62      -1.1051      2.00000
     63      -1.0498      2.00000
     64      -1.0185      2.00000
     65      -1.0171      2.00000
     66      -0.9946      2.00000
     67      -0.9670      2.00000
     68      -0.9554      2.00000
     69      -0.9453      2.00000
     70      -0.9375      2.00000
     71      -0.9310      2.00000
     72      -0.9039      2.00000
     73      -0.8694      2.00000
     74      -0.8606      2.00000
     75      -0.8470      2.00000
     76      -0.8356      2.00000
     77      -0.8118      2.00000
     78      -0.8055      2.00000
     79      -0.7849      2.00000
     80      -0.7672      2.00000
     81      -0.6972      2.00000
     82      -0.6722      2.00000
     83      -0.6580      2.00000
     84      -0.6360      2.00000
     85      -0.6317      2.00000
     86      -0.5947      2.00000
     87      -0.5716      2.00000
     88      -0.5226      2.00000
     89      -0.5087      2.00000
     90      -0.5043      2.00000
     91      -0.4922      2.00000
     92      -0.4744      2.00000
     93      -0.4319      2.00000
     94      -0.4239      2.00000
     95      -0.4056      2.00000
     96      -0.3857      2.00000
     97      -0.3588      2.00000
     98      -0.3542      2.00000
     99      -0.3425      2.00000
    100      -0.3336      2.00000
    101      -0.3116      2.00000
    102      -0.3041      2.00000
    103      -0.2336      2.00000
    104      -0.2099      2.00000
    105      -0.1906      2.00000
    106      -0.1815      2.00000
    107      -0.1668      2.00000
    108      -0.1633      2.00000
    109      -0.1508      2.00000
    110      -0.1245      2.00000
    111      -0.1205      2.00000
    112      -0.0573      2.00000
    113       0.0392      2.00000
    114       0.0522      2.00000
    115       0.0989      2.00000
    116       0.1437      2.00000
    117       0.1768      2.00000
    118       0.2094      2.00000
    119       0.2616      2.00000
    120       0.2849      2.00000
    121       0.3131      2.00000
    122       0.3844      2.00000
    123       0.4011      2.00000
    124       0.4168      2.00000
    125       0.4465      2.00000
    126       0.4565      2.00000
    127       0.4904      2.00000
    128       0.5100      2.00000
    129       0.5290      2.00000
    130       0.5427      2.00000
    131       0.5539      2.00000
    132       0.5713      2.00000
    133       0.5758      2.00000
    134       0.6370      2.00000
    135       0.6403      2.00000
    136       0.6528      2.00000
    137       0.7096      2.00000
    138       0.7188      2.00000
    139       0.7460      2.00000
    140       0.7549      2.00000
    141       0.7684      2.00000
    142       0.7946      2.00000
    143       0.8166      2.00000
    144       0.8719      2.00000
    145       0.8783      2.00000
    146       0.9205      2.00000
    147       0.9344      2.00000
    148       0.9697      2.00000
    149       1.0003      2.00000
    150       1.0340      2.00000
    151       1.0619      2.00000
    152       1.0646      2.00000
    153       1.0846      2.00000
    154       1.0897      2.00000
    155       1.1440      2.00000
    156       1.1635      2.00000
    157       1.1894      2.00000
    158       1.2309      2.00000
    159       1.2472      2.00000
    160       1.2715      2.00000
    161       1.3863      2.00000
    162       1.4084      2.00000
    163       1.4440      2.00000
    164       1.4639      2.00000
    165       1.5815      2.00000
    166       1.5844      2.00000
    167       1.5987      2.00000
[...]
    143       0.8502      2.00000
    144       0.8530      2.00000
    145       0.9177      2.00000
    146       0.9253      2.00000
    147       1.0128      2.00000
    148       1.0171      2.00000
    149       1.0367      2.00000
    150       1.0413      2.00000
    151       1.0723      2.00000
    152       1.0757      2.00000
    153       1.0955      2.00000
    154       1.0979      2.00000
    155       1.1616      2.00000
    156       1.1635      2.00000
    157       1.2058      2.00000
    158       1.2069      2.00000
    159       1.2617      2.00000
    160       1.2645      2.00000
    161       1.4405      2.00000
    162       1.4426      2.00000
    163       1.5728      2.00000
    164       1.5761      2.00000
    165       1.5815      2.00000
    166       1.5849      2.00000
    167       1.6747      2.00000
    168       1.6769      2.00000
    169       1.7483      2.00000
    170       1.7527      2.00000
    171       1.8304      2.00000
    172       1.8326      2.00000
    173       1.8648      2.00000
    174       1.8682      2.00000
    175       1.9823      2.00000
    176       1.9846      2.00000
    177       3.8024      0.00000
    178       3.8062      0.00000
    179       3.9886      0.00000
    180       3.9904      0.00000
    181       4.1010      0.00000
    182       4.1031      0.00000
    183       4.2524      0.00000
    184       4.2543      0.00000
    185       4.3198      0.00000
    186       4.3235      0.00000
    187       4.4231      0.00000
    188       4.4261      0.00000
    189       4.5966      0.00000
    190       4.5996      0.00000
    191       4.6741      0.00000
    192       4.6794      0.00000
    193       4.7678      0.00000
    194       4.7711      0.00000
    195       4.8177      0.00000
    196       4.8221      0.00000
    197       4.8824      0.00000
    198       4.8839      0.00000
    199       5.0117      0.00000
    200       5.0134      0.00000
    201       5.5502      0.00000
    202       5.5519      0.00000
    203       5.5889      0.00000
    204       5.5931      0.00000
    205       5.6279      0.00000
    206       5.6456      0.00000
    207       5.7849      0.00000
    208       5.7876      0.00000
    209       7.3224      0.00000
    210       7.3252      0.00000
    211       7.4890      0.00000

 k-point    36 :       0.5000    0.5000    0.5000
  band No.  band energies     occupation 
      1     -10.7714      2.00000
      2     -10.7691      2.00000
      3     -10.6424      2.00000
      4     -10.6420      2.00000
      5     -10.3855      2.00000
      6     -10.3847      2.00000
      7     -10.1204      2.00000
      8     -10.1161      2.00000
      9      -9.9069      2.00000
     10      -9.9065      2.00000
     11      -9.8211      2.00000
     12      -9.8184      2.00000
     13      -9.7921      2.00000
     14      -9.7919      2.00000
     15      -9.7510      2.00000
     16      -9.7509      2.00000
     17      -9.7292      2.00000
     18      -9.7278      2.00000
     19      -9.7064      2.00000
     20      -9.7018      2.00000
     21      -9.6972      2.00000
     22      -9.6949      2.00000
     23      -9.6412      2.00000
     24      -9.6339      2.00000
     25      -9.6177      2.00000
     26      -9.6141      2.00000
     27      -9.5880      2.00000
     28      -9.5835      2.00000
     29      -9.5541      2.00000
     30      -9.5495      2.00000
     31      -9.5396      2.00000
     32      -9.5382      2.00000
     33      -8.2012      2.00000
     34      -8.1995      2.00000
     35      -8.0071      2.00000
     36      -8.0047      2.00000
     37      -7.7665      2.00000
     38      -7.7648      2.00000
     39      -7.5893      2.00000
     40      -7.5867      2.00000
     41      -1.7841      2.00000
     42      -1.7812      2.00000
     43      -1.6777      2.00000
     44      -1.6774      2.00000
     45      -1.6346      2.00000
     46      -1.6329      2.00000
     47      -1.5410      2.00000
     48      -1.5393      2.00000
     49      -1.4924      2.00000
     50      -1.4911      2.00000
     51      -1.4603      2.00000
     52      -1.4587      2.00000
     53      -1.3799      2.00000
     54      -1.3792      2.00000
     55      -1.2887      2.00000
     56      -1.2884      2.00000
     57      -1.2716      2.00000
     58      -1.2703      2.00000
     59      -1.1432      2.00000
     60      -1.1384      2.00000
     61      -1.0493      2.00000
     62      -1.0453      2.00000
     63      -1.0132      2.00000
     64      -1.0077      2.00000
     65      -0.9999      2.00000
     66      -0.9908      2.00000
     67      -0.9710      2.00000
     68      -0.9667      2.00000
     69      -0.9213      2.00000
     70      -0.9115      2.00000
     71      -0.8883      2.00000
     72      -0.8852      2.00000
     73      -0.8724      2.00000
     74      -0.8700      2.00000
     75      -0.8452      2.00000
     76      -0.8447      2.00000
     77      -0.8325      2.00000
     78      -0.8273      2.00000
     79      -0.7464      2.00000
     80      -0.7458      2.00000
     81      -0.6977      2.00000
     82      -0.6938      2.00000
     83      -0.6266      2.00000
     84      -0.6235      2.00000
     85      -0.5932      2.00000
     86      -0.5892      2.00000
     87      -0.5523      2.00000
     88      -0.5514      2.00000
     89      -0.5231      2.00000
     90      -0.5181      2.00000
     91      -0.4815      2.00000
     92      -0.4799      2.00000
     93      -0.4088      2.00000
     94      -0.4048      2.00000
     95      -0.3851      2.00000
     96      -0.3823      2.00000
     97      -0.3630      2.00000
     98      -0.3590      2.00000
     99      -0.3169      2.00000
    100      -0.3124      2.00000
    101      -0.3089      2.00000
    102      -0.3055      2.00000
    103      -0.2607      2.00000
    104      -0.2545      2.00000
    105      -0.2121      2.00000
    106      -0.2095      2.00000
    107      -0.1897      2.00000
    108      -0.1851      2.00000
    109      -0.1480      2.00000
    110      -0.1461      2.00000
    111      -0.0874      2.00000
    112      -0.0832      2.00000
    113       0.0333      2.00000
    114       0.0359      2.00000
    115       0.1446      2.00000
    116       0.1465      2.00000
    117       0.2299      2.00000
    118       0.2355      2.00000
    119       0.2826      2.00000
    120       0.2851      2.00000
    121       0.3654      2.00000
    122       0.3676      2.00000
    123       0.3704      2.00000
    124       0.3724      2.00000
    125       0.4203      2.00000
    126       0.4217      2.00000
    127       0.4555      2.00000
    128       0.4566      2.00000
    129       0.5101      2.00000
    130       0.5154      2.00000
    131       0.5507      2.00000
    132       0.5536      2.00000
    133       0.5707      2.00000
    134       0.5771      2.00000
    135       0.6076      2.00000
    136       0.6077      2.00000
    137       0.6648      2.00000
    138       0.6704      2.00000
    139       0.6961      2.00000
    140       0.7039      2.00000
    141       0.7367      2.00000
    142       0.7417      2.00000
    143       0.8777      2.00000
    144       0.8807      2.00000
    145       0.9037      2.00000
    146       0.9123      2.00000
    147       1.0312      2.00000
    148       1.0346      2.00000
    149       1.0498      2.00000
    150       1.0547      2.00000
    151       1.0727      2.00000
    152       1.0740      2.00000
    153       1.0880      2.00000
    154       1.0890      2.00000
    155       1.1729      2.00000
    156       1.1742      2.00000
    157       1.2004      2.00000
    158       1.2015      2.00000
    159       1.2645      2.00000
    160       1.2680      2.00000
    161       1.4724      2.00000
    162       1.4748      2.00000
    163       1.5722      2.00000
    164       1.5760      2.00000
    165       1.5810      2.00000
    166       1.5829      2.00000
    167       1.6911      2.00000
    168       1.6923      2.00000
    169       1.7687      2.00000
    170       1.7717      2.00000
    171       1.8317      2.00000
    172       1.8341      2.00000
    173       1.8640      2.00000
    174       1.8645      2.00000
    175       2.0193      2.00000
    176       2.0204      2.00000
    177       3.7041      0.00000
    178       3.7072      0.00000
    179       3.9120      0.00000
    180       3.9137      0.00000
    181       4.0418      0.00000
    182       4.0440      0.00000
    183       4.2281      0.00000
    184       4.2290      0.00000
    185       4.3110      0.00000
    186       4.3162      0.00000
    187       4.4219      0.00000
    188       4.4230      0.00000
    189       4.6108      0.00000
    190       4.6149      0.00000
    191       4.7003      0.00000
    192       4.7034      0.00000
    193       4.8147      0.00000
    194       4.8198      0.00000
    195       4.8476      0.00000
    196       4.8490      0.00000
    197       4.9493      0.00000
    198       4.9503      0.00000
    199       5.0277      0.00000
    200       5.0297      0.00000
    201       5.5344      0.00000
    202       5.5352      0.00000
    203       5.5644      0.00000
    204       5.5658      0.00000
    205       5.5959      0.00000
    206       5.6165      0.00000
    207       5.7998      0.00000
    208       5.8001      0.00000
    209       7.2419      0.00000
    210       7.2447      0.00000
    211       7.4995      0.00000


--------------------------------------------------------------------------------------------------------


 soft charge-density along one line, spin component           1
         0         1         2         3         4         5         6         7         8         9
 total charge-density along one line
 
 pseudopotential strength for first ion, spin component:           1
 -6.461   0.000  -0.001  -0.001   0.001  -6.595   0.000  -0.001
  0.000  -6.464  -0.001   0.000   0.002   0.000  -6.598  -0.001
 -0.001  -0.001  -6.452   0.000  -0.005  -0.001  -0.001  -6.586
 -0.001   0.000   0.000  -6.456  -0.000  -0.001   0.000   0.000
  0.001   0.002  -0.005  -0.000  -6.455   0.001   0.002  -0.005
 -6.595   0.000  -0.001  -0.001   0.001  -6.699   0.000  -0.001
  0.000  -6.598  -0.001   0.000   0.002   0.000  -6.702  -0.001
 -0.001  -0.001  -6.586   0.000  -0.005  -0.001  -0.001  -6.690
 -0.001   0.000   0.000  -6.590  -0.000  -0.001   0.000   0.000
  0.001   0.002  -0.005  -0.000  -6.589   0.001   0.001  -0.005
  0.000  -0.001   0.001  -0.000  -0.001   0.000  -0.001   0.001
  0.000  -0.001   0.001  -0.001  -0.001   0.000  -0.001   0.001
  0.002  -0.006   0.004  -0.000   0.007   0.002  -0.006   0.004
 -0.000  -0.006  -0.008   0.002   0.000  -0.000  -0.006  -0.008
 -0.006  -0.000  -0.001  -0.006   0.002  -0.006  -0.000  -0.001
  0.002  -0.008   0.005  -0.000   0.009   0.002  -0.008   0.005
 -0.000  -0.008  -0.010   0.002   0.000  -0.000  -0.007  -0.009
 -0.008  -0.000  -0.001  -0.008   0.002  -0.007  -0.000  -0.001
 total augmentation occupancy for first ion, spin component:           1
  2.303   0.002  -0.072  -0.004   0.142  -0.305   0.001   0.071   0.011  -0.125  -0.069   0.014   0.009   0.001   0.047   0.001
  0.002   2.304  -0.078   0.007   0.125   0.001  -0.325   0.078  -0.011  -0.124   0.156  -0.026   0.030   0.068  -0.000  -0.005
 -0.072  -0.078   4.200  -0.013  -0.192   0.071   0.078  -2.041   0.016   0.174  -0.164   0.026   0.123  -0.139  -0.018  -0.005
 -0.004   0.007  -0.013   2.281  -0.054   0.011  -0.011   0.016  -0.300   0.053   0.067  -0.014  -0.004   0.002   0.024   0.000
  0.142   0.125  -0.192  -0.054   3.905  -0.125  -0.124   0.174   0.053  -1.753  -0.089   0.004   0.192   0.007   0.011  -0.007
 -0.305   0.001   0.071   0.011  -0.125   0.291  -0.005  -0.069  -0.016   0.111   0.063  -0.015  -0.010  -0.000  -0.034   0.001
  0.001  -0.325   0.078  -0.011  -0.124  -0.005   0.327  -0.078   0.013   0.123  -0.142   0.030  -0.020  -0.052   0.000   0.001
  0.071   0.078  -2.041   0.016   0.174  -0.069  -0.078   1.883  -0.019  -0.157   0.143  -0.027  -0.111   0.130   0.017   0.007
  0.011  -0.011   0.016  -0.300   0.053  -0.016   0.013  -0.019   0.300  -0.052  -0.057   0.014   0.003  -0.003  -0.015  -0.000
 -0.125  -0.124   0.174   0.053  -1.753   0.111   0.123  -0.157  -0.052   1.602   0.082  -0.012  -0.174  -0.005  -0.013   0.011
 -0.069   0.156  -0.164   0.067  -0.089   0.063  -0.142   0.143  -0.057   0.082   1.436  -0.306   0.050   0.046  -0.013  -0.005
  0.014  -0.026   0.026  -0.014   0.004  -0.015   0.030  -0.027   0.014  -0.012  -0.306   0.070  -0.012  -0.009   0.003   0.001
  0.009   0.030   0.123  -0.004   0.192  -0.010  -0.020  -0.111   0.003  -0.174   0.050  -0.012   0.079  -0.010   0.004  -0.005
  0.001   0.068  -0.139   0.002   0.007  -0.000  -0.052   0.130  -0.003  -0.005   0.046  -0.009  -0.010   0.099  -0.003   0.001
  0.047  -0.000  -0.018   0.024   0.011  -0.034   0.000   0.017  -0.015  -0.013  -0.013   0.003   0.004  -0.003   0.090  -0.000
  0.001  -0.005  -0.005   0.000  -0.007   0.001   0.001   0.007  -0.000   0.011  -0.005   0.001  -0.005   0.001  -0.000   0.000
  0.000  -0.006   0.004   0.001  -0.000  -0.000   0.003  -0.008   0.000   0.000  -0.004   0.001   0.001  -0.007   0.000  -0.000
 -0.005   0.000   0.000  -0.004  -0.000   0.002  -0.000  -0.001   0.001   0.001   0.001  -0.000  -0.000   0.000  -0.006   0.000


------------------------ aborting loop because EDIFF is reached ----------------------------------------


 


 total charge     
 
# of ion       s       p       d       tot
------------------------------------------
    1        0.241   0.151   9.320   9.712
    2        0.253   0.157   9.312   9.723
    3        0.238   0.147   9.323   9.708
    4        0.241   0.151   9.320   9.712
    5        0.254   0.159   9.312   9.725
    6        0.241   0.151   9.320   9.712
    7        0.241   0.151   9.320   9.712
    8        0.238   0.147   9.323   9.708
    9        1.834   1.401   0.138   3.373
   10        1.833   1.400   0.135   3.368
   11        1.835   1.397   0.139   3.371
   12        1.835   1.397   0.139   3.371
   13        1.834   1.401   0.138   3.373
   14        1.834   1.400   0.138   3.373
   15        1.833   1.400   0.135   3.368
   16        1.834   1.400   0.138   3.373
   17        1.518   2.742   0.012   4.272
   18        1.518   2.743   0.012   4.273
   19        1.514   2.742   0.017   4.273
   20        1.518   2.742   0.013   4.273
   21        1.518   2.742   0.011   4.271
   22        1.514   2.742   0.017   4.273
   23        1.518   2.742   0.011   4.271
   24        1.518   2.742   0.012   4.272
   25        1.516   2.743   0.015   4.274
   26        1.513   2.747   0.016   4.276
   27        1.517   2.745   0.013   4.275
   28        1.513   2.747   0.016   4.276
   29        1.514   2.743   0.015   4.272
   30        1.517   2.745   0.013   4.275
   31        1.514   2.743   0.015   4.272
   32        1.516   2.743   0.015   4.274
   33        1.518   2.742   0.013   4.273
   34        1.514   2.742   0.017   4.273
   35        1.518   2.743   0.012   4.273
   36        1.518   2.742   0.012   4.272
   37        1.518   2.742   0.012   4.272
   38        1.518   2.742   0.011   4.271
   39        1.514   2.742   0.017   4.274
   40        1.518   2.742   0.011   4.271
   41        1.513   2.747   0.016   4.276
   42        1.517   2.746   0.012   4.275
   43        1.513   2.747   0.016   4.276
   44        1.515   2.744   0.015   4.274
   45        1.515   2.744   0.015   4.274
   46        1.514   2.743   0.015   4.272
   47        1.517   2.746   0.012   4.275
   48        1.514   2.743   0.015   4.272
--------------------------------------------------
tot         65.134 100.206  76.089 241.430
 


--------------------------------------------------------------------------------------------------------



  FREE ENERGIE OF THE ION-ELECTRON SYSTEM (eV)
  ---------------------------------------------------
  free  energy   TOTEN  =      -119.96418871 eV

  energy  without entropy=     -119.96418871  energy(sigma->0) =     -119.96418871
 


--------------------------------------------------------------------------------------------------------




--------------------------------------------------------------------------------------------------------


 writing wavefunctions
     LOOP+:  cpu time  115.4445: real time  115.5078
    4ORBIT:  cpu time    0.0000: real time    0.0000
 


 total charge     
 
# of ion       s       p       d       tot
------------------------------------------
    1        0.241   0.151   9.320   9.712
    2        0.253   0.157   9.312   9.723
    3        0.238   0.147   9.323   9.708
    4        0.241   0.151   9.320   9.712
    5        0.254   0.159   9.312   9.725
    6        0.241   0.151   9.320   9.712
    7        0.241   0.151   9.320   9.712
    8        0.238   0.147   9.323   9.708
    9        1.834   1.401   0.138   3.373
   10        1.833   1.400   0.135   3.368
   11        1.835   1.397   0.139   3.371
   12        1.835   1.397   0.139   3.371
   13        1.834   1.401   0.138   3.373
   14        1.834   1.400   0.138   3.373
   15        1.833   1.400   0.135   3.368
   16        1.834   1.400   0.138   3.373
   17        1.518   2.742   0.012   4.272
   18        1.518   2.743   0.012   4.273
   19        1.514   2.742   0.017   4.273
   20        1.518   2.742   0.013   4.273
   21        1.518   2.742   0.011   4.271
   22        1.514   2.742   0.017   4.273
   23        1.518   2.742   0.011   4.271
   24        1.518   2.742   0.012   4.272
   25        1.516   2.743   0.015   4.274
   26        1.513   2.747   0.016   4.276
   27        1.517   2.745   0.013   4.275
   28        1.513   2.747   0.016   4.276
   29        1.514   2.743   0.015   4.272
   30        1.517   2.745   0.013   4.275
   31        1.514   2.743   0.015   4.272
   32        1.516   2.743   0.015   4.274
   33        1.518   2.742   0.013   4.273
   34        1.514   2.742   0.017   4.273
   35        1.518   2.743   0.012   4.273
   36        1.518   2.742   0.012   4.272
   37        1.518   2.742   0.012   4.272
   38        1.518   2.742   0.011   4.271
   39        1.514   2.742   0.017   4.274
   40        1.518   2.742   0.011   4.271
   41        1.513   2.747   0.016   4.276
   42        1.517   2.746   0.012   4.275
   43        1.513   2.747   0.016   4.276
   44        1.515   2.744   0.015   4.274
   45        1.515   2.744   0.015   4.274
   46        1.514   2.743   0.015   4.272
   47        1.517   2.746   0.012   4.275
   48        1.514   2.743   0.015   4.272
--------------------------------------------------
tot         65.134 100.206  76.089 241.430
 
 BZINTS: Fermi energy:    2.054017;  352.000000 electrons
         Band energy:-0.758828E+03;  BLOECHL correction:    0.000000

 total amount of memory used by VASP MPI-rank0  2782079. kBytes
=======================================================================

   base      :      30000. kBytes
   nonl-proj :     303764. kBytes
   fftplans  :      34720. kBytes
   grid      :      70000. kBytes
   one-center:        746. kBytes
   wavefun   :    2342849. kBytes
 
  
  
 General timing and accounting informations for this job:
 ========================================================
  
                  Total CPU time used (sec):      155.538
                            User time (sec):      150.974
                          System time (sec):        4.563
                         Elapsed time (sec):      156.981
  
                   Maximum memory used (kb):     4340656.
                   Average memory used (kb):           0.
  
                          Minor page faults:       414924
                          Major page faults:            0
                 Voluntary context switches:         2229
