 vasp.6.1.0 28Jan20 (build Jan 13 2021 21:44:47) complex                        
  
 executed on             LinuxIFC date 2021.09.12  19:29:47
 running on    9 total cores
 distrk:  each k-point on    1 cores,    9 groups
 distr:  one band on NCORE=   1 cores,    1 groups


--------------------------------------------------------------------------------------------------------


 INCAR:
 POTCAR:    PAW_PBE Ag 02Apr2005                  
 POTCAR:    PAW_PBE Bi 08Apr2002                  
 POTCAR:    PAW_PBE I 08Apr2002                   
 -----------------------------------------------------------------------------
|                                                                             |
|           W    W    AA    RRRRR   N    N  II  N    N   GGGG   !!!           |
|           W    W   A  A   R    R  NN   N  II  NN   N  G    G  !!!           |
|           W    W  A    A  R    R  N N  N  II  N N  N  G       !!!           |
|           W WW W  AAAAAA  RRRRR   N  N N  II  N  N N  G  GGG   !            |
|           WW  WW  A    A  R   R   N   NN  II  N   NN  G    G                |
|           W    W  A    A  R    R  N    N  II  N    N   GGGG   !!!           |
|                                                                             |
|     For optimal performance we recommend to set                             |
|       NCORE = 4 - approx SQRT(number of cores).                             |
|     NCORE specifies how many cores store one orbital (NPAR=cpu/NCORE).      |
|     This setting can greatly improve the performance of VASP for DFT.       |
|     The default, NCORE=1 might be grossly inefficient on modern             |
|     multi-core architectures or massively parallel machines. Do your        |
|     own testing!!!!                                                         |
|     Unfortunately you need to use the default for GW and RPA                |
|     calculations (for HF NCORE is supported but not extensively tested      |
|     yet).                                                                   |
|                                                                             |
 -----------------------------------------------------------------------------

 POTCAR:    PAW_PBE Ag 02Apr2005                  
   VRHFIN =Ag : s1 d10                                                                              
   LEXCH  = PE                                                                                      
   EATOM  =  1037.2675 eV,   76.2370 Ry                                                             
                                                                                                    
   TITEL  = PAW_PBE Ag 02Apr2005                                                                    
   LULTRA =        F    use ultrasoft PP ?                                                          
   IUNSCR =        1    unscreen: 0-lin 1-nonlin 2-no                                               
   RPACOR =    2.000    partial core radius                                                         
   POMASS =  107.868; ZVAL   =   11.000    mass and valenz                                          
   RCORE  =    2.500    outmost cutoff radius                                                       
   RWIGS  =    2.840; RWIGS  =    1.503    wigner-seitz radius (au A)                               
   ENMAX  =  249.844; ENMIN  =  187.383 eV                                                          
   ICORE  =        3    local potential                                                             
   LCOR   =        T    correct aug charges                                                         
   LPAW   =        T    paw PP                                                                      
   EAUG   =  412.496                                                                                
   DEXC   =    0.000                                                                                
   RMAX   =    2.560    core radius for proj-oper                                                   
   RAUG   =    1.300    factor for augmentation sphere                                              
   RDEP   =    2.576    radius for radial grids                                                     
   RDEPT  =    2.072    core radius for aug-charge                                                  
                                                                                                    
   Atomic configuration                                                                             
   12 entries                                                                                       
     n  l   j            E        occ.                                                              
     1  0  0.50    -25324.9161   2.0000                                                             
     2  0  0.50     -3728.5341   2.0000                                                             
     2  1  1.50     -3344.0404   6.0000                                                             
     3  0  0.50      -683.5581   2.0000                                                             
     3  1  1.50      -557.3225   6.0000                                                             
     3  2  2.50      -358.3853  10.0000                                                             
     4  0  0.50       -95.0341   2.0000                                                             
     4  1  1.50       -58.5511   6.0000                                                             
     4  2  2.50        -7.4440  10.0000                                                             
     5  0  0.50        -4.4045   1.0000                                                             
     5  1  0.50        -1.3606   0.0000                                                             
     4  3  2.50        -1.3606   0.0000                                                             
   Description                                                                                      
     l       E           TYP  RCUT    TYP  RCUT                                                     
     2     -7.4439781     23  2.400                                                                 
     2     -8.8045607     23  2.400                                                                 
     0     -4.4044681     23  2.400                                                                 
     0      1.9520038     23  2.400                                                                 
     1     -1.3605826     23  2.500                                                                 
     1     27.2116520     23  2.500                                                                 
     3     -4.0817478     23  2.400                                                                 
  local pseudopotential read in
  partial core-charges read in
  partial kinetic energy density read in
  atomic valenz-charges read in
  non local Contribution for L=           2  read in
    real space projection operators read in
  non local Contribution for L=           2  read in
    real space projection operators read in
  non local Contribution for L=           0  read in
    real space projection operators read in
  non local Contribution for L=           0  read in
    real space projection operators read in
  non local Contribution for L=           1  read in
    real space projection operators read in
  non local Contribution for L=           1  read in
    real space projection operators read in
    PAW grid and wavefunctions read in
 
   number of l-projection  operators is LMAX  =           6
   number of lm-projection operators is LMMAX =          18
 
 POTCAR:    PAW_PBE Bi 08Apr2002                  
   VRHFIN =Bi:                                                                                      
   LEXCH  = PE                                                                                      
   EATOM  =   150.8133 eV,   11.0845 Ry                                                             
                                                                                                    
   TITEL  = PAW_PBE Bi 08Apr2002                                                                    
   LULTRA =        F    use ultrasoft PP ?                                                          
   IUNSCR =        1    unscreen: 0-lin 1-nonlin 2-no                                               
   RPACOR =    2.200    partial core radius                                                         
   POMASS =  208.980; ZVAL   =    5.000    mass and valenz                                          
   RCORE  =    3.000    outmost cutoff radius                                                       
   RWIGS  =    3.090; RWIGS  =    1.635    wigner-seitz radius (au A)                               
   ENMAX  =  105.037; ENMIN  =   78.777 eV                                                          
   ICORE  =        3    local potential                                                             
   LCOR   =        T    correct aug charges                                                         
   LPAW   =        T    paw PP                                                                      
   EAUG   =  265.427                                                                                
   DEXC   =    0.000                                                                                
   RMAX   =    3.067    core radius for proj-oper                                                   
   RAUG   =    1.300    factor for augmentation sphere                                              
   RDEP   =    3.012    radius for radial grids                                                     
   RDEPT  =    2.604    core radius for aug-charge                                                  
                                                                                                    
   Atomic configuration                                                                             
   17 entries                                                                                       
     n  l   j            E        occ.                                                              
     1  0  0.50    -90639.6582   2.0000                                                             
     2  0  0.50    -16282.4667   2.0000                                                             
     2  1  1.50    -13922.8287   6.0000                                                             
     3  0  0.50     -3930.4763   2.0000                                                             
     3  1  1.50     -3256.7013   6.0000                                                             
     3  2  2.50     -2581.6169  10.0000                                                             
     4  0  0.50      -902.2614   2.0000                                                             
     4  1  1.50      -681.5915   6.0000                                                             
     4  2  2.50      -429.8249  10.0000                                                             
     4  3  3.50      -152.6004  14.0000                                                             
     5  0  0.50      -157.7156   2.0000                                                             
     5  1  1.50       -95.8054   6.0000                                                             
     5  2  2.50       -27.0806  10.0000                                                             
     6  0  0.50       -14.4732   2.0000                                                             
     6  1  1.50        -4.5702   3.0000                                                             
     6  2  2.50        -2.7212   0.0000                                                             
     5  3  2.50        -2.7212   0.0000                                                             
   Description                                                                                      
     l       E           TYP  RCUT    TYP  RCUT                                                     
     0    -14.4732299     23  3.000                                                                 
     0    -12.2452434     23  3.000                                                                 
     1     -4.5701666     23  3.000                                                                 
     1    -13.6058260     23  3.000                                                                 
     2     -2.7211652     23  3.000                                                                 
     3     -1.3605826      7  3.000                                                                 
  local pseudopotential read in
  partial core-charges read in
  partial kinetic energy density read in
  kinetic energy density of atom read in
  atomic valenz-charges read in
  non local Contribution for L=           0  read in
    real space projection operators read in
  non local Contribution for L=           0  read in
    real space projection operators read in
  non local Contribution for L=           1  read in
    real space projection operators read in
  non local Contribution for L=           1  read in
    real space projection operators read in
  non local Contribution for L=           2  read in
    real space projection operators read in
    PAW grid and wavefunctions read in
 
   number of l-projection  operators is LMAX  =           5
   number of lm-projection operators is LMMAX =          13
 
 POTCAR:    PAW_PBE I 08Apr2002                   
   VRHFIN =I : s2p5                                                                                 
   LEXCH  = PE                                                                                      
   EATOM  =   315.8678 eV,   23.2156 Ry                                                             
                                                                                                    
   TITEL  = PAW_PBE I 08Apr2002                                                                     
   LULTRA =        F    use ultrasoft PP ?                                                          
   IUNSCR =        1    unscreen: 0-lin 1-nonlin 2-no                                               
   RPACOR =    2.200    partial core radius                                                         
   POMASS =  126.904; ZVAL   =    7.000    mass and valenz                                          
   RCORE  =    2.300    outmost cutoff radius                                                       
   RWIGS  =    2.810; RWIGS  =    1.487    wigner-seitz radius (au A)                               
   ENMAX  =  175.647; ENMIN  =  131.735 eV                                                          
   ICORE  =        3    local potential                                                             
   LCOR   =        T    correct aug charges                                                         
   LPAW   =        T    paw PP                                                                      
   EAUG   =  370.139                                                                                
   DEXC   =    0.000                                                                                
   RMAX   =    2.359    core radius for proj-oper                                                   
   RAUG   =    1.300    factor for augmentation sphere                                              
   RDEP   =    2.392    radius for radial grids                                                     
   RDEPT  =    2.170    core radius for aug-charge                                                  
                                                                                                    
   Atomic configuration                                                                             
   13 entries                                                                                       
     n  l   j            E        occ.                                                              
     1  0  0.50    -32976.3739   2.0000                                                             
     2  0  0.50     -5094.5933   2.0000                                                             
     2  1  1.50     -4572.0131   6.0000                                                             
     3  0  0.50     -1028.2813   2.0000                                                             
     3  1  1.50      -859.0250   6.0000                                                             
     3  2  2.50      -605.7620  10.0000                                                             
     4  0  0.50      -180.5540   2.0000                                                             
     4  1  1.50      -127.5306   6.0000                                                             
     4  2  2.50       -50.2720  10.0000                                                             
     5  0  0.50       -17.4058   2.0000                                                             
     5  1  0.50        -7.0851   5.0000                                                             
     5  2  1.50        -7.0750   0.0000                                                             
     4  3  2.50        -7.0750   0.0000                                                             
   Description                                                                                      
     l       E           TYP  RCUT    TYP  RCUT                                                     
     0    -17.4058016     23  2.300                                                                 
     0    -18.7663842     23  2.300                                                                 
     1     -7.0850686     23  2.300                                                                 
     1     -4.2150896     23  2.300                                                                 
     2     -7.0750295     23  2.300                                                                 
     3     -1.3605826     23  2.300                                                                 
  local pseudopotential read in
  partial core-charges read in
  partial kinetic energy density read in
  atomic valenz-charges read in
  non local Contribution for L=           0  read in
    real space projection operators read in
  non local Contribution for L=           0  read in
    real space projection operators read in
  non local Contribution for L=           1  read in
    real space projection operators read in
  non local Contribution for L=           1  read in
    real space projection operators read in
  non local Contribution for L=           2  read in
    real space projection operators read in
    PAW grid and wavefunctions read in
 
   number of l-projection  operators is LMAX  =           5
   number of lm-projection operators is LMMAX =          13
 
 -----------------------------------------------------------------------------
|                                                                             |
|               ----> ADVICE to this user running VASP <----                  |
|                                                                             |
|     You have a (more or less) 'large supercell' and for larger cells it     |
|     might be more efficient to use real-space projection operators.         |
|     Therefore, try LREAL= Auto in the INCAR file.                           |
|     Mind: For very accurate calculation, you might also keep the            |
|     reciprocal projection scheme (i.e. LREAL=.FALSE.).                      |
|                                                                             |
 -----------------------------------------------------------------------------

  PAW_PBE Ag 02Apr2005                  :
 energy of atom  1       EATOM=-1037.2675
 kinetic energy error for atom=    0.0686 (will be added to EATOM!!)
  PAW_PBE Bi 08Apr2002                  :
 energy of atom  2       EATOM= -150.8133
 kinetic energy error for atom=    0.0004 (will be added to EATOM!!)
  PAW_PBE I 08Apr2002                   :
 energy of atom  3       EATOM= -315.8678
 kinetic energy error for atom=    0.0044 (will be added to EATOM!!)
 
 
 POSCAR: Generation Seed Number
  positions in direct lattice
  velocities in cartesian coordinates
 exchange correlation table for  LEXCH =        8
   RHO(1)=    0.500       N(1)  =     2000
   RHO(2)=  100.500       N(2)  =     4000
 


--------------------------------------------------------------------------------------------------------


 ion  position               nearest neighbor table
   1  0.260  0.224  0.993-  29 2.94  17 2.97  42 3.07  25 3.15  41 3.18
   2  0.746  0.752  0.999-  48 3.02  31 3.03  47 3.05  27 3.11  21 3.23  23 3.29
   3  0.975  0.500  0.525-  28 2.95  26 2.96  24 2.97  36 2.97
   4  0.988  0.724  0.755-  48 2.94  36 2.97  27 3.06  28 3.13  44 3.21  34 3.59
   5  0.276  1.000  0.224-  41 2.94  43 2.94  17 2.97  37 2.97
   6  0.507  0.775  0.240-  31 2.94  37 2.97  47 3.07  32 3.14  43 3.17  39 3.59
   7  0.502  0.252  0.753-  46 3.02  29 3.04  42 3.05  30 3.10  40 3.24  38 3.29
   8  0.745  0.275  0.513-  46 2.94  24 2.97  30 3.06  26 3.13  45 3.22
   9  0.002  0.996  0.998-  27 3.03  17 3.06  34 3.13  33 3.14  25 3.20  21 3.20
  10  0.500  0.500  0.001-  29 3.11  31 3.11  23 3.12  40 3.12  39 3.13  19 3.14
  11  0.002  0.249  0.252-  41 3.07  26 3.08  33 3.14  35 3.14  45 3.18  25 3.18
  12  0.502  0.004  0.499-  30 3.03  37 3.06  22 3.13  18 3.14  38 3.20  32 3.20
  13  0.750  1.000  0.750-  38 3.11  46 3.11  48 3.11  21 3.12  22 3.14  34 3.14
  14  0.749  0.503  0.250-  47 3.04  24 3.06  39 3.13  35 3.14  45 3.19  23 3.20
  15  0.250  0.497  0.751-  42 3.04  36 3.06  19 3.13  20 3.14  44 3.19  40 3.20
  16  0.248  0.750  0.498-  43 3.07  28 3.08  18 3.14  20 3.14  44 3.18  32 3.18
  17  0.242  0.992  0.994-   5 2.97   1 2.97   9 3.06
  18  0.256  0.996  0.511-  16 3.14  12 3.14
  19  0.253  0.506  0.997-  15 3.13  10 3.14
  20  0.260  0.504  0.505-  16 3.14  15 3.14
  21  0.750  0.006  0.995-  13 3.12   9 3.20   2 3.23
  22  0.747  0.994  0.504-  12 3.13  13 3.14
  23  0.745  0.493  0.999-  10 3.12  14 3.20   2 3.29
  24  0.744  0.508  0.491-   3 2.97   8 2.97  14 3.06
  25  0.014  0.247  0.002-   1 3.15  11 3.18   9 3.20
  26  0.990  0.271  0.493-   3 2.96  11 3.08   8 3.13
  27  0.991  0.758  0.993-   9 3.03   4 3.06   2 3.11
  28  0.008  0.729  0.510-   3 2.95  16 3.08   4 3.13
  29  0.489  0.256  0.992-   1 2.94   7 3.04  10 3.11
  30  0.507  0.242  0.510-  12 3.03   8 3.06   7 3.10
  31  0.508  0.744  0.012-   6 2.94   2 3.03  10 3.11
  32  0.498  0.753  0.486-   6 3.14  16 3.18  12 3.20
  33  0.989  0.004  0.245-  11 3.14   9 3.14
  34  0.996  0.006  0.753-   9 3.13  13 3.14   4 3.59
  35  0.995  0.496  0.240-  11 3.14  14 3.14
  36  0.009  0.492  0.756-   3 2.97   4 2.97  15 3.06
  37  0.506  0.008  0.259-   5 2.97   6 2.97  12 3.06
  38  0.505  0.993  0.750-  13 3.11  12 3.20   7 3.29
  39  0.503  0.493  0.247-  14 3.13  10 3.13   6 3.59
  40  0.501  0.506  0.755-  10 3.12  15 3.20   7 3.24
  41  0.242  0.228  0.242-   5 2.94  11 3.07   1 3.18
  42  0.262  0.258  0.755-  15 3.04   7 3.05   1 3.07
  43  0.258  0.772  0.258-   5 2.94  16 3.07   6 3.17
  44  0.239  0.747  0.748-  16 3.18  15 3.19   4 3.21
  45  0.752  0.253  0.261-  11 3.18  14 3.19   8 3.22
  46  0.738  0.244  0.741-   8 2.94   7 3.02  13 3.11
  47  0.745  0.741  0.238-  14 3.04   2 3.05   6 3.07
  48  0.759  0.756  0.762-   4 2.94   2 3.02  13 3.11
 
 -----------------------------------------------------------------------------
|                                                                             |
|           W    W    AA    RRRRR   N    N  II  N    N   GGGG   !!!           |
|           W    W   A  A   R    R  NN   N  II  NN   N  G    G  !!!           |
|           W    W  A    A  R    R  N N  N  II  N N  N  G       !!!           |
|           W WW W  AAAAAA  RRRRR   N  N N  II  N  N N  G  GGG   !            |
|           WW  WW  A    A  R   R   N   NN  II  N   NN  G    G                |
|           W    W  A    A  R    R  N    N  II  N    N   GGGG   !!!           |
|                                                                             |
|     The determination of the symmetry of your systems shows a strong        |
|     dependence on the tolerance parameter SYMPREC. This is often the        |
|     result of "noise" in the structural parameters (lattice vectors         |
|     and/or ionic positions). Set NWRITE=3 for more details.                 |
|                                                                             |
 -----------------------------------------------------------------------------

  Warning from LATTYP: Got some problem with cell dimensions!
  Tried to take original basis but could not verify dimensions!
  LATTYP: Found a triclinic cell.
 ALAT       =    12.7260284466
 B/A-ratio  =     1.4142078062
 C/A-ratio  =     1.0000094860
 COS(alpha) =     0.0000136049
 COS(beta)  =     0.0001538994
 COS(gamma) =     0.7069764266
  
  Lattice vectors:
  
 A1 = ( -12.7260283492,  -0.0012192414,  -0.0009958267)
 A2 = ( -12.7248500508,  12.7271031454,  -0.0002058361)
 A3 = (  -0.0009626222,  -0.0009234400, -12.7261490960)


Analysis of symmetry for initial positions (statically):
=====================================================================
 Subroutine PRICEL returns:
 Original cell was already a primitive cell.
 

 Routine SETGRP: Setting up the symmetry group for a 
 triclinic supercell.


 Subroutine GETGRP returns: Found  1 space group operations
 (whereof  1 operations were pure point group operations)
 out of a pool of  2 trial point group operations.


The static configuration has the point symmetry C_1 .


Analysis of symmetry for dynamics (positions and initial velocities):
=====================================================================
 Subroutine PRICEL returns:
 Original cell was already a primitive cell.
 

 Routine SETGRP: Setting up the symmetry group for a 
 triclinic supercell.


 Subroutine GETGRP returns: Found  1 space group operations
 (whereof  1 operations were pure point group operations)
 out of a pool of  2 trial point group operations.


The dynamic configuration has the point symmetry C_1 .


 Subroutine INISYM returns: Found  1 space group operations
 (whereof  1 operations are pure point group operations),
 and found     1 'primitive' translations


----------------------------------------------------------------------------------------

                                     Primitive cell                                     

  volume of cell :    2061.3942

  direct lattice vectors                    reciprocal lattice vectors
    12.726028349  0.001219241  0.000995827     0.078579113 -0.000007274 -0.000005943
     0.001178298 12.728322387  0.000789991    -0.000007527  0.078564950 -0.000005700
     0.000962622  0.000923440 12.726149096    -0.000006148 -0.000004876  0.078578367

  length of vectors
    12.726028447 12.728322466 12.726149166     0.078579113  0.078564951  0.078578367

  position of ions in fractional coordinates (direct lattice)
     0.260096736  0.224485676  0.993438017
     0.746241545  0.752070233  0.998654664
     0.975130253  0.500020537  0.524942570
     0.987644965  0.724420910  0.755487628
     0.276094578  0.999801421  0.224157177
     0.506664110  0.775099936  0.240420027
     0.501784979  0.251795572  0.753350742
     0.744725023  0.275469510  0.512525587
     0.001638056  0.995829500  0.998132852
     0.499843269  0.499860407  0.000535712
     0.002087332  0.249407296  0.252042460
     0.501936403  0.003864252  0.498757517
     0.749515754  0.999779604  0.750430538
     0.748970994  0.502815566  0.250307189
     0.249608059  0.496855173  0.751279229
     0.248032905  0.750150807  0.498119450
     0.241724743  0.991532830  0.993761055
     0.255518438  0.996089446  0.511418280
     0.253483627  0.506372797  0.996680361
     0.259948521  0.503793786  0.504618076
     0.750093870  0.006084305  0.995169980
     0.747494670  0.993641811  0.504040387
     0.744575801  0.493347926  0.999342541
     0.744329305  0.507950418  0.490682985
     0.013872695  0.247007751  0.002184732
     0.989628766  0.270586396  0.492563005
     0.990508356  0.758168960  0.993470281
     0.007507194  0.729348879  0.510304134
     0.488693186  0.255731028  0.991687234
     0.506788530  0.241613194  0.509737176
     0.508433844  0.744037763  0.011628172
     0.497941855  0.752682035  0.486365601
     0.988753283  0.003504140  0.244634158
     0.996184813  0.006155580  0.752712455
     0.995495897  0.495813244  0.240012557
     0.009438516  0.491800876  0.755782737
     0.506491439  0.008120564  0.258540800
     0.505132766  0.993370194  0.750004192
     0.503393842  0.493366447  0.246609446
     0.500940232  0.506138943  0.755424400
     0.242166514  0.227954702  0.242270038
     0.262131775  0.258320800  0.754738986
     0.257971970  0.771644297  0.258069468
     0.238893669  0.746854394  0.747970656
     0.752268075  0.252782510  0.261020986
     0.738274804  0.243902371  0.741265025
     0.745478189  0.741358287  0.237989351
     0.759024062  0.755545969  0.761942781

  ion indices of the primitive-cell ions
   primitive index   ion index
                 1           1
                 2           2
                 3           3
                 4           4
                 5           5
                 6           6
                 7           7
                 8           8
                 9           9
                10          10
                11          11
                12          12
                13          13
                14          14
                15          15
                16          16
                17          17
                18          18
                19          19
                20          20
                21          21
                22          22
                23          23
                24          24
                25          25
                26          26
                27          27
                28          28
                29          29
                30          30
                31          31
                32          32
                33          33
                34          34
                35          35
                36          36
                37          37
                38          38
                39          39
                40          40
                41          41
                42          42
                43          43
                44          44
                45          45
                46          46
                47          47
                48          48

----------------------------------------------------------------------------------------

 
 
 KPOINTS: agbii                                   

Automatic generation of k-mesh.
Space group operators:
 irot       det(A)        alpha          n_x          n_y          n_z        tau_x        tau_y        tau_z
    1     1.000000     0.000000     1.000000     0.000000     0.000000     0.000000     0.000000     0.000000
 TETIRR: Found    192 inequivalent tetrahedra from      384
 
 Subroutine IBZKPT returns following result:
 ===========================================
 
 Found     36 irreducible k-points:
 
 Following reciprocal coordinates:
            Coordinates               Weight
  0.000000  0.000000  0.000000      1.000000
  0.250000  0.000000 -0.000000      2.000000
  0.500000  0.000000  0.000000      1.000000
  0.000000  0.250000 -0.000000      2.000000
  0.250000  0.250000 -0.000000      2.000000
  0.500000  0.250000  0.000000      2.000000
 -0.250000  0.250000  0.000000      2.000000
  0.000000  0.500000 -0.000000      1.000000
  0.250000  0.500000 -0.000000      2.000000
  0.500000  0.500000  0.000000      1.000000
 -0.000000  0.000000  0.250000      2.000000
  0.250000 -0.000000  0.250000      2.000000
  0.500000  0.000000  0.250000      2.000000
 -0.250000 -0.000000  0.250000      2.000000
  0.000000  0.250000  0.250000      2.000000
  0.250000  0.250000  0.250000      2.000000
  0.500000  0.250000  0.250000      2.000000
 -0.250000  0.250000  0.250000      2.000000
  0.000000  0.500000  0.250000      2.000000
  0.250000  0.500000  0.250000      2.000000
  0.500000  0.500000  0.250000      2.000000
 -0.250000  0.500000  0.250000      2.000000
 -0.000000 -0.250000  0.250000      2.000000
  0.250000 -0.250000  0.250000      2.000000
  0.500000 -0.250000  0.250000      2.000000
 -0.250000 -0.250000  0.250000      2.000000
 -0.000000  0.000000  0.500000      1.000000
  0.250000 -0.000000  0.500000      2.000000
  0.500000 -0.000000  0.500000      1.000000
  0.000000  0.250000  0.500000      2.000000
  0.250000  0.250000  0.500000      2.000000
  0.500000  0.250000  0.500000      2.000000
 -0.250000  0.250000  0.500000      2.000000
  0.000000  0.500000  0.500000      1.000000
  0.250000  0.500000  0.500000      2.000000
  0.500000  0.500000  0.500000      1.000000
 
 Following cartesian coordinates:
            Coordinates               Weight
  0.000000  0.000000  0.000000      1.000000
  0.019645 -0.000002 -0.000001      2.000000
  0.039290 -0.000004 -0.000003      1.000000
 -0.000002  0.019641 -0.000001      2.000000
  0.019643  0.019639 -0.000003      2.000000
  0.039288  0.019638 -0.000004      2.000000
 -0.019647  0.019643  0.000000      2.000000
 -0.000004  0.039282 -0.000003      1.000000
  0.019641  0.039281 -0.000004      2.000000
  0.039286  0.039279 -0.000006      1.000000
 -0.000002 -0.000001  0.019645      2.000000
  0.019643 -0.000003  0.019643      2.000000
  0.039288 -0.000005  0.019642      2.000000
 -0.019646  0.000001  0.019646      2.000000
 -0.000003  0.019640  0.019643      2.000000
  0.019641  0.019638  0.019642      2.000000
  0.039286  0.019636  0.019640      2.000000
 -0.019648  0.019642  0.019645      2.000000
 -0.000005  0.039281  0.019642      2.000000
  0.019639  0.039279  0.019640      2.000000
  0.039284  0.039278  0.019639      2.000000
 -0.019650  0.039283  0.019643      2.000000
  0.000000 -0.019642  0.019646      2.000000
  0.019645 -0.019644  0.019645      2.000000
  0.039290 -0.019646  0.019643      2.000000
 -0.019644 -0.019641  0.019648      2.000000
 -0.000003 -0.000002  0.039289      1.000000
  0.019642 -0.000004  0.039288      2.000000
  0.039286 -0.000006  0.039286      1.000000
 -0.000005  0.019639  0.039288      2.000000
  0.019640  0.019637  0.039286      2.000000
  0.039285  0.019635  0.039285      2.000000
 -0.019650  0.019641  0.039289      2.000000
 -0.000007  0.039280  0.039286      1.000000
  0.019638  0.039278  0.039285      2.000000
  0.039283  0.039276  0.039283      1.000000
 


--------------------------------------------------------------------------------------------------------




 Dimension of arrays:
   k-points           NKPTS =     36   k-points in BZ     NKDIM =     36   number of bands    NBANDS=    211
   number of dos      NEDOS =   3000   number of ions     NIONS =     48
   non local maximal  LDIM  =      6   non local SUM 2l+1 LMDIM =     18
   total plane-waves  NPLWV = 125000
   max r-space proj   IRMAX =      1   max aug-charges    IRDMAX=   5975
   dimension x,y,z NGX =    50 NGY =   50 NGZ =   50
   dimension x,y,z NGXF=   100 NGYF=  100 NGZF=  100
   support grid    NGXF=   100 NGYF=  100 NGZF=  100
   ions per type =               8   8  32
   NGX,Y,Z   is equivalent  to a cutoff of   6.53,  6.53,  6.53 a.u.
   NGXF,Y,Z  is equivalent  to a cutoff of  13.06, 13.06, 13.06 a.u.

 SYSTEM =  unknown system                          
 POSCAR =  Generation Seed Number                  

 Startparameter for this run:
   NWRITE =      2    write-flag & timer
   PREC   = normal    normal or accurate (medium, high low for compatibility)
   ISTART =      1    job   : 0-new  1-cont  2-samecut
   ICHARG =      1    charge: 1-file 2-atom 10-const
   ISPIN  =      1    spin polarized calculation?
   LNONCOLLINEAR =      F non collinear calculations
   LSORBIT =      F    spin-orbit coupling
   INIWAV =      1    electr: 0-lowe 1-rand  2-diag
   LASPH  =      F    aspherical Exc in radial PAW
   METAGGA=      F    non-selfconsistent MetaGGA calc.

 Electronic Relaxation 1
   ENCUT  =  250.0 eV  18.37 Ry    4.29 a.u.  16.41 16.41 16.41*2*pi/ulx,y,z
   ENINI  =  250.0     initial cutoff
   ENAUG  =  412.5 eV  augmentation charge cutoff
   NELM   =     60;   NELMIN=  2; NELMDL=  0     # of ELM steps 
   EDIFF  = 0.1E-05   stopping-criterion for ELM
   LREAL  =      F    real-space projection
   NLSPLINE    = F    spline interpolate recip. space projectors
   LCOMPAT=      F    compatible to vasp.4.4
   GGA_COMPAT  = T    GGA compatible to vasp.4.4-vasp.4.6
   LMAXPAW     = -100 max onsite density
   LMAXMIX     =    4 max onsite mixed and CHGCAR
   VOSKOWN=      0    Vosko Wilk Nusair interpolation
   ROPT   =    0.00000   0.00000   0.00000
 Ionic relaxation
   EDIFFG = -.1E-01   stopping-criterion for IOM
   NSW    =      0    number of steps for IOM
   NBLOCK =      1;   KBLOCK =      1    inner block; outer block 
   IBRION =     -1    ionic relax: 0-MD 1-quasi-New 2-CG
   NFREE  =      0    steps in history (QN), initial steepest desc. (CG)
   ISIF   =     -1    stress and relaxation
   IWAVPR =     10    prediction:  0-non 1-charg 2-wave 3-comb
   ISYM   =      2    0-nonsym 1-usesym 2-fastsym
   LCORR  =      T    Harris-Foulkes like correction to forces

   POTIM  = 0.5000    time-step for ionic-motion
   TEIN   =    0.0    initial temperature
   TEBEG  =    0.0;   TEEND  =   0.0 temperature during run
   SMASS  =  -3.00    Nose mass-parameter (am)
   estimated Nose-frequenzy (Omega)   =  0.10E-29 period in steps = 0.13E+47 mass=  -0.370E-26a.u.
   SCALEE = 1.0000    scale energy and forces
   NPACO  =    256;   APACO  = 16.0  distance and # of slots for P.C.
   PSTRESS=    0.0 pullay stress

  Mass of Ions in am
   POMASS = 107.87208.98126.90
  Ionic Valenz
   ZVAL   =  11.00  5.00  7.00
  Atomic Wigner-Seitz radii
   RWIGS  =  -1.00 -1.00 -1.00
  virtual crystal weights 
   VCA    =   1.00  1.00  1.00
   NELECT =     352.0000    total number of electrons
   NUPDOWN=      -1.0000    fix difference up-down

 DOS related values:
   EMIN   =  10.00;   EMAX   =-10.00  energy-range for DOS
   EFERMI =   0.00
   ISMEAR =    -5;   SIGMA  =   0.20  broadening in eV -4-tet -1-fermi 0-gaus

 Electronic relaxation 2 (details)
   IALGO  =     38    algorithm
   LDIAG  =      T    sub-space diagonalisation (order eigenvalues)
   LSUBROT=      F    optimize rotation matrix (better conditioning)
   TURBO    =      0    0=normal 1=particle mesh
   IRESTART =      0    0=no restart 2=restart with 2 vectors
   NREBOOT  =      0    no. of reboots
   NMIN     =      0    reboot dimension
   EREF     =   0.00    reference energy to select bands
   IMIX   =      4    mixing-type and parameters
     AMIX     =   0.40;   BMIX     =  1.00
     AMIX_MAG =   1.60;   BMIX_MAG =  1.00
     AMIN     =   0.10
     WC   =   100.;   INIMIX=   1;  MIXPRE=   1;  MAXMIX= -45

 Intra band minimization:
   WEIMIN = 0.0000     energy-eigenvalue tresh-hold
   EBREAK =  0.12E-08  absolut break condition
   DEPER  =   0.30     relativ break condition  

   TIME   =   0.40     timestep for ELM

  volume/ion in A,a.u.               =      42.95       289.81
  Fermi-wavevector in a.u.,A,eV,Ry     =   0.908243  1.716330 11.223517  0.824905
  Thomas-Fermi vector in A             =   2.032146
 
 Write flags
   LWAVE        =      T    write WAVECAR
   LDOWNSAMPLE  =      F    k-point downsampling of WAVECAR
   LCHARG       =      T    write CHGCAR
   LVTOT        =      F    write LOCPOT, total local potential
   LVHAR        =      F    write LOCPOT, Hartree potential only
   LELF         =      F    write electronic localiz. function (ELF)
   LORBIT       =     10    0 simple, 1 ext, 2 COOP (PROOUT), +10 PAW based schemes


 Dipole corrections
   LMONO  =      F    monopole corrections only (constant potential shift)
   LDIPOL =      F    correct potential (dipole corrections)
   IDIPOL =      0    1-x, 2-y, 3-z, 4-all directions 
   EPSILON=  1.0000000 bulk dielectric constant

 Exchange correlation treatment:
   GGA     =    --    GGA type
   LEXCH   =     8    internal setting for exchange type
   VOSKOWN=      0    Vosko Wilk Nusair interpolation
   LHFCALC =     F    Hartree Fock is set to
   LHFONE  =     F    Hartree Fock one center treatment
   AEXX    =    0.0000 exact exchange contribution

 Linear response parameters
   LEPSILON=     F    determine dielectric tensor
   LRPA    =     F    only Hartree local field effects (RPA)
   LNABLA  =     F    use nabla operator in PAW spheres
   LVEL    =     F    velocity operator in full k-point grid
   LINTERFAST=   F  fast interpolation
   KINTER  =     0    interpolate to denser k-point grid
   CSHIFT  =0.1000    complex shift for real part using Kramers Kronig
   OMEGAMAX=  -1.0    maximum frequency
   DEG_THRESHOLD= 0.2000000E-02 threshold for treating states as degnerate
   RTIME   =   -0.100 relaxation time in fs
  (WPLASMAI=    0.000 imaginary part of plasma frequency in eV, 0.658/RTIME)
   DFIELD  = 0.0000000 0.0000000 0.0000000 field for delta impulse in time
 
 Orbital magnetization related:
   ORBITALMAG=     F  switch on orbital magnetization
   LCHIMAG   =     F  perturbation theory with respect to B field
   DQ        =  0.001000  dq finite difference perturbation B field
   LLRAUG    =     F  two centre corrections for induced B field



--------------------------------------------------------------------------------------------------------


 Static calculation
 charge density and potential will be updated during run
 non-spin polarized calculation
 Variant of blocked Davidson
 Davidson routine will perform the subspace rotation
 perform sub-space diagonalisation
    after iterative eigenvector-optimisation
 modified Broyden-mixing scheme, WC =      100.0
 initial mixing is a Kerker type mixing with AMIX =  0.4000 and BMIX =      1.0000
 Hartree-type preconditioning will be used
 using additional bands           35
 reciprocal scheme for non local part
 use partial core corrections
 calculate Harris-corrections to forces 
   (improved forces if not selfconsistent)
 use gradient corrections 
 use of overlap-Matrix (Vanderbilt PP)
 Fermi weights with tetrahedron method with Bloechl corrections


--------------------------------------------------------------------------------------------------------


  energy-cutoff  :      250.00
  volume of cell :     2061.39
      direct lattice vectors                 reciprocal lattice vectors
    12.726028349  0.001219241  0.000995827     0.078579113 -0.000007274 -0.000005943
     0.001178298 12.728322387  0.000789991    -0.000007527  0.078564950 -0.000005700
     0.000962622  0.000923440 12.726149096    -0.000006148 -0.000004876  0.078578367

  length of vectors
    12.726028447 12.728322466 12.726149166     0.078579113  0.078564951  0.078578367


 
 old parameters found on file WAVECAR:
  energy-cutoff  :      250.00
  volume of cell :     2061.39
      direct lattice vectors                 reciprocal lattice vectors
    12.726028349  0.001219241  0.000995827     0.078579113 -0.000007274 -0.000005943
     0.001178298 12.728322387  0.000789991    -0.000007527  0.078564950 -0.000005700
     0.000962622  0.000923440 12.726149096    -0.000006148 -0.000004876  0.078578367

  length of vectors

 
 k-points in units of 2pi/SCALE and weight: agbii                                   
   0.00000000  0.00000000  0.00000000       0.016
   0.01964478 -0.00000182 -0.00000149       0.031
   0.03928956 -0.00000364 -0.00000297       0.016
  -0.00000188  0.01964124 -0.00000143       0.031
   0.01964290  0.01963942 -0.00000291       0.031
   0.03928767  0.01963760 -0.00000440       0.031
  -0.01964666  0.01964306  0.00000006       0.031
  -0.00000376  0.03928248 -0.00000285       0.016
   0.01964101  0.03928066 -0.00000434       0.031
   0.03928579  0.03927884 -0.00000582       0.016
  -0.00000154 -0.00000122  0.01964459       0.031
   0.01964324 -0.00000304  0.01964311       0.031
   0.03928802 -0.00000486  0.01964162       0.031
  -0.01964632  0.00000060  0.01964608       0.031
  -0.00000342  0.01964002  0.01964317       0.031
   0.01964136  0.01963820  0.01964168       0.031
   0.03928614  0.01963638  0.01964019       0.031
  -0.01964820  0.01964184  0.01964465       0.031
  -0.00000530  0.03928126  0.01964174       0.031
   0.01963948  0.03927944  0.01964026       0.031
   0.03928426  0.03927762  0.01963877       0.031
  -0.01965008  0.03928307  0.01964323       0.031
   0.00000034 -0.01964246  0.01964602       0.031
   0.01964512 -0.01964428  0.01964453       0.031
   0.03928990 -0.01964609  0.01964305       0.031
  -0.01964443 -0.01964064  0.01964750       0.031
  -0.00000307 -0.00000244  0.03928918       0.016
   0.01964170 -0.00000426  0.03928770       0.031
   0.03928648 -0.00000608  0.03928621       0.016
  -0.00000496  0.01963880  0.03928776       0.031
   0.01963982  0.01963698  0.03928627       0.031
   0.03928460  0.01963516  0.03928479       0.031
  -0.01964973  0.01964062  0.03928924       0.031
  -0.00000684  0.03928004  0.03928633       0.016
   0.01963794  0.03927822  0.03928485       0.031
   0.03928272  0.03927640  0.03928336       0.016
 
 k-points in reciprocal lattice and weights: agbii                                   
   0.00000000  0.00000000  0.00000000       0.016
   0.25000000  0.00000000 -0.00000000       0.031
   0.50000000  0.00000000  0.00000000       0.016
   0.00000000  0.25000000 -0.00000000       0.031
   0.25000000  0.25000000 -0.00000000       0.031
   0.50000000  0.25000000  0.00000000       0.031
  -0.25000000  0.25000000  0.00000000       0.031
   0.00000000  0.50000000 -0.00000000       0.016
   0.25000000  0.50000000 -0.00000000       0.031
   0.50000000  0.50000000  0.00000000       0.016
  -0.00000000  0.00000000  0.25000000       0.031
   0.25000000 -0.00000000  0.25000000       0.031
   0.50000000  0.00000000  0.25000000       0.031
  -0.25000000 -0.00000000  0.25000000       0.031
   0.00000000  0.25000000  0.25000000       0.031
   0.25000000  0.25000000  0.25000000       0.031
   0.50000000  0.25000000  0.25000000       0.031
  -0.25000000  0.25000000  0.25000000       0.031
   0.00000000  0.50000000  0.25000000       0.031
   0.25000000  0.50000000  0.25000000       0.031
   0.50000000  0.50000000  0.25000000       0.031
  -0.25000000  0.50000000  0.25000000       0.031
  -0.00000000 -0.25000000  0.25000000       0.031
   0.25000000 -0.25000000  0.25000000       0.031
   0.50000000 -0.25000000  0.25000000       0.031
  -0.25000000 -0.25000000  0.25000000       0.031
  -0.00000000  0.00000000  0.50000000       0.016
   0.25000000 -0.00000000  0.50000000       0.031
   0.50000000 -0.00000000  0.50000000       0.016
   0.00000000  0.25000000  0.50000000       0.031
   0.25000000  0.25000000  0.50000000       0.031
   0.50000000  0.25000000  0.50000000       0.031
  -0.25000000  0.25000000  0.50000000       0.031
   0.00000000  0.50000000  0.50000000       0.016
   0.25000000  0.50000000  0.50000000       0.031
   0.50000000  0.50000000  0.50000000       0.016
 
 position of ions in fractional coordinates (direct lattice) 
   0.26009674  0.22448568  0.99343802
   0.74624154  0.75207023  0.99865466
   0.97513025  0.50002054  0.52494257
   0.98764497  0.72442091  0.75548763
   0.27609458  0.99980142  0.22415718
   0.50666411  0.77509994  0.24042003
   0.50178498  0.25179557  0.75335074
   0.74472502  0.27546951  0.51252559
   0.00163806  0.99582950  0.99813285
   0.49984327  0.49986041  0.00053571
   0.00208733  0.24940730  0.25204246
   0.50193640  0.00386425  0.49875752
   0.74951575  0.99977960  0.75043054
   0.74897099  0.50281557  0.25030719
   0.24960806  0.49685517  0.75127923
   0.24803290  0.75015081  0.49811945
   0.24172474  0.99153283  0.99376105
   0.25551844  0.99608945  0.51141828
   0.25348363  0.50637280  0.99668036
   0.25994852  0.50379379  0.50461808
   0.75009387  0.00608431  0.99516998
   0.74749467  0.99364181  0.50404039
   0.74457580  0.49334793  0.99934254
   0.74432931  0.50795042  0.49068299
   0.01387269  0.24700775  0.00218473
   0.98962877  0.27058640  0.49256301
   0.99050836  0.75816896  0.99347028
   0.00750719  0.72934888  0.51030413
   0.48869319  0.25573103  0.99168723
   0.50678853  0.24161319  0.50973718
   0.50843384  0.74403776  0.01162817
   0.49794185  0.75268204  0.48636560
   0.98875328  0.00350414  0.24463416
   0.99618481  0.00615558  0.75271246
   0.99549590  0.49581324  0.24001256
   0.00943852  0.49180088  0.75578274
   0.50649144  0.00812056  0.25854080
   0.50513277  0.99337019  0.75000419
   0.50339384  0.49336645  0.24660945
   0.50094023  0.50613894  0.75542440
   0.24216651  0.22795470  0.24227004
   0.26213177  0.25832080  0.75473899
   0.25797197  0.77164430  0.25806947
   0.23889367  0.74685439  0.74797066
   0.75226807  0.25278251  0.26102099
   0.73827480  0.24390237  0.74126502
   0.74547819  0.74135829  0.23798935
   0.75902406  0.75554597  0.76194278
 
 position of ions in cartesian coordinates  (Angst):
   3.31121925  2.85856056 12.64307667
   9.49853855  9.57442443 12.71036541
  12.41062974  6.36609626  6.68186348
  12.57037866  9.22256472  9.61600400
   3.51498127 12.72633843  2.85372244
   6.44896656  9.86656163  3.06073798
   6.38675175  3.20624269  9.58795247
   9.47820971  3.50764602  6.52343627
   0.02298016 12.67616263 12.70317582
   6.36160911  6.36299433  0.00771020
   0.02709995  3.17477176  3.20772903
   6.38814157  0.05025800  6.34776542
   9.54025915 12.72712394  9.55162712
   9.53225952  6.40114294  3.18658967
   3.17782787  6.32513092  9.56153256
   3.15783718  9.54892371  6.33998199
   3.07832087 12.62176192 12.64777537
   3.25340088 12.67933140  6.50942663
   3.22739591  6.44650564 12.68455533
   3.30919163  6.41323265  6.42250172
   9.54668099  0.07927652 12.66543331
   9.51429436 12.64877013  6.41602245
   9.47703605  6.28132210 12.71891338
   9.47342670  6.46671730  6.24564733
   0.17683746  3.14401322  0.02801218
  12.59483671  3.44577233  6.26962950
  12.60708710  9.65234403 12.64463624
   0.09688738  9.28386805  6.49479015
   6.22037928  3.25653857 12.62104828
   6.45018057  3.07641923  6.48768685
   6.47123140  9.47098316  0.14907595
   6.33817723  9.58143584  6.19065163
  12.58314193  0.04603326  3.11423816
  12.67820800  0.08025988  9.58012782
  12.66952426  6.31230620  3.05581861
   0.12142184  6.26050953  9.61860171
   6.44588286  0.10421744  3.29073956
   6.43022636 12.64524454  9.54595295
   6.40702303  6.28056868  3.13927962
   6.37630316  6.44360799  9.61454224
   3.08231974  2.90199991  3.08358586
   3.33692731  3.28900698  9.60538597
   3.28411626  9.82229022  3.28509701
   3.04176763  9.50718547  9.51961399
   9.57393397  3.21865551  3.32274081
   9.39630704  3.10605265  9.43437710
   9.48807921  9.43737597  3.03001600
   9.66098546  9.61846172  9.69795017
 


--------------------------------------------------------------------------------------------------------


 k-point   1 :   0.0000 0.0000 0.0000  plane waves:   18613
 k-point   2 :   0.2500 0.0000-0.0000  plane waves:   18533
 k-point   3 :   0.5000 0.0000 0.0000  plane waves:   18488
 k-point   4 :   0.0000 0.2500-0.0000  plane waves:   18533
 k-point   5 :   0.2500 0.2500-0.0000  plane waves:   18509
 k-point   6 :   0.5000 0.2500 0.0000  plane waves:   18507
 k-point   7 :  -0.2500 0.2500 0.0000  plane waves:   18509
 k-point   8 :   0.0000 0.5000-0.0000  plane waves:   18484
 k-point   9 :   0.2500 0.5000-0.0000  plane waves:   18506
 k-point  10 :   0.5000 0.5000 0.0000  plane waves:   18528
 k-point  11 :  -0.0000 0.0000 0.2500  plane waves:   18533
 k-point  12 :   0.2500-0.0000 0.2500  plane waves:   18509
 k-point  13 :   0.5000 0.0000 0.2500  plane waves:   18506
 k-point  14 :  -0.2500-0.0000 0.2500  plane waves:   18509
 k-point  15 :   0.0000 0.2500 0.2500  plane waves:   18509
 k-point  16 :   0.2500 0.2500 0.2500  plane waves:   18507
 k-point  17 :   0.5000 0.2500 0.2500  plane waves:   18478
 k-point  18 :  -0.2500 0.2500 0.2500  plane waves:   18519
 k-point  19 :   0.0000 0.5000 0.2500  plane waves:   18506
 k-point  20 :   0.2500 0.5000 0.2500  plane waves:   18478
 k-point  21 :   0.5000 0.5000 0.2500  plane waves:   18500
 k-point  22 :  -0.2500 0.5000 0.2500  plane waves:   18478
 k-point  23 :  -0.0000-0.2500 0.2500  plane waves:   18509
 k-point  24 :   0.2500-0.2500 0.2500  plane waves:   18514
 k-point  25 :   0.5000-0.2500 0.2500  plane waves:   18478
 k-point  26 :  -0.2500-0.2500 0.2500  plane waves:   18517
 k-point  27 :  -0.0000 0.0000 0.5000  plane waves:   18490
 k-point  28 :   0.2500-0.0000 0.5000  plane waves:   18506
 k-point  29 :   0.5000-0.0000 0.5000  plane waves:   18528
 k-point  30 :   0.0000 0.2500 0.5000  plane waves:   18507
 k-point  31 :   0.2500 0.2500 0.5000  plane waves:   18478
 k-point  32 :   0.5000 0.2500 0.5000  plane waves:   18500
 k-point  33 :  -0.2500 0.2500 0.5000  plane waves:   18478
 k-point  34 :   0.0000 0.5000 0.5000  plane waves:   18528
 k-point  35 :   0.2500 0.5000 0.5000  plane waves:   18500
 k-point  36 :   0.5000 0.5000 0.5000  plane waves:   18504

 maximum and minimum number of plane-waves per node :     18613    18478

 maximum number of plane-waves:     18613
 maximum index in each direction: 
   IXMAX=   16   IYMAX=   16   IZMAX=   16
   IXMIN=  -16   IYMIN=  -16   IZMIN=  -16


 serial   3D FFT for wavefunctions
 parallel 3D FFT for charge:
    minimum data exchange during FFTs selected (reduces bandwidth)


 total amount of memory used by VASP MPI-rank0  2782079. kBytes
=======================================================================

   base      :      30000. kBytes
   nonl-proj :     303764. kBytes
   fftplans  :      34720. kBytes
   grid      :      70000. kBytes
   one-center:        746. kBytes
   wavefun   :    2342849. kBytes
 
     INWAV:  cpu time    4.5161: real time    5.3492
 Broyden mixing: mesh for mixing (old mesh)
   NGX = 33   NGY = 33   NGZ = 33
  (NGX  =100   NGY  =100   NGZ  =100)
  gives a total of  35937 points

 initial charge density was supplied:
 number of electron     352.0000532 magnetization 
 keeping initial charge density in first step


--------------------------------------------------------------------------------------------------------


 Maximum index for augmentation-charges         5606 (set IRDMAX)


--------------------------------------------------------------------------------------------------------


 First call to EWALD:  gamma=   0.139
 Maximum number of real-space cells 3x 3x 3
 Maximum number of reciprocal cells 3x 3x 3

    FEWALD:  cpu time    0.0026: real time    0.0026


--------------------------------------- Iteration      1(   1)  ---------------------------------------


    POTLOK:  cpu time    0.4620: real time    0.7421
    SETDIJ:  cpu time    0.0272: real time    0.0272
     EDDAV:  cpu time   61.2255: real time   61.3436
 BZINTS: Fermi energy:    2.050271;  352.000000 electrons
         Band energy:-0.759053E+03;  BLOECHL correction:   -0.000000
       DOS:  cpu time    0.0634: real time    0.0634
    CHARGE:  cpu time    1.2390: real time    1.2390
    MIXING:  cpu time    0.0266: real time    0.0266
    --------------------------------------------
      LOOP:  cpu time   63.0439: real time   63.4421

 eigenvalue-minimisations  : 10704
 total energy-change (2. order) :-0.1199642E+03  (-0.2975853E-06)
 number of electron     352.0000532 magnetization 
 augmentation part      -23.1235455 magnetization 

 Broyden mixing:
  rms(total) = 0.66978E-03    rms(broyden)= 0.66975E-03
  rms(prec ) = 0.79027E-03
  weight for this iteration     100.00

 Free energy of the ion-electron system (eV)
  ---------------------------------------------------
  alpha Z        PSCENC =       225.91425922
  Ewald energy   TEWEN  =    -13866.78873506
  -Hartree energ DENC   =     -6081.85247930
  -exchange      EXHF   =         0.00000000
  -V(xc)+E(xc)   XCENC  =     -1392.36283992
  PAW double counting   =     22641.34692041   -20498.89213680
  entropy T*S    EENTRO =         0.00000000
  eigenvalues    EBANDS =      -759.05297309
  atomic energy  EATOM  =     19611.72375700
  Solvation  Ediel_sol  =         0.00000000
  ---------------------------------------------------
  free energy    TOTEN  =      -119.96422754 eV

  energy without entropy =     -119.96422754  energy(sigma->0) =     -119.96422754


--------------------------------------------------------------------------------------------------------




--------------------------------------- Iteration      1(   2)  ---------------------------------------


    POTLOK:  cpu time    0.5728: real time    0.5830
    SETDIJ:  cpu time    0.0370: real time    0.0370
     EDDAV:  cpu time   51.1707: real time   51.1696
 BZINTS: Fermi energy:    2.050355;  352.000000 electrons
         Band energy:-0.759051E+03;  BLOECHL correction:   -0.000000
       DOS:  cpu time    0.0540: real time    0.0540
    --------------------------------------------
      LOOP:  cpu time   51.8345: real time   51.8435

 eigenvalue-minimisations  :  8216
 total energy-change (2. order) : 0.8853021E-07  (-0.1254499E-06)
 number of electron     352.0000532 magnetization 
 augmentation part      -23.1235455 magnetization 

 Free energy of the ion-electron system (eV)
  ---------------------------------------------------
  alpha Z        PSCENC =       225.91425922
  Ewald energy   TEWEN  =    -13866.78873506
  -Hartree energ DENC   =     -6081.85466812
  -exchange      EXHF   =         0.00000000
  -V(xc)+E(xc)   XCENC  =     -1392.36233418
  PAW double counting   =     22640.91661338   -20498.46261274
  entropy T*S    EENTRO =         0.00000000
  eigenvalues    EBANDS =      -759.05050695
  atomic energy  EATOM  =     19611.72375700
  Solvation  Ediel_sol  =         0.00000000
  ---------------------------------------------------
  free energy    TOTEN  =      -119.96422745 eV

  energy without entropy =     -119.96422745  energy(sigma->0) =     -119.96422745


--------------------------------------------------------------------------------------------------------




 average (electrostatic) potential at core
  the test charge radii are     1.1249  1.4024  1.1875
  (the norm of the test charge is              1.0000)
       1 -75.0650       2 -75.0029       3 -75.1923       4 -75.0726       5 -75.1945
       6 -75.0644       7 -75.0032       8 -75.0729       9 -65.5343      10 -65.5041
      11 -65.4762      12 -65.5342      13 -65.5087      14 -65.5313      15 -65.5332
      16 -65.4773      17 -93.2400      18 -93.3200      19 -93.3354      20 -93.3216
      21 -93.3284      22 -93.3389      23 -93.3112      24 -93.2330      25 -93.1919
      26 -93.0963      27 -93.0759      28 -93.0976      29 -92.9960      30 -93.0795
      31 -92.9980      32 -93.1928      33 -93.3183      34 -93.3344      35 -93.3221
      36 -93.2380      37 -93.2346      38 -93.3156      39 -93.3395      40 -93.3232
      41 -93.0769      42 -93.0812      43 -93.0785      44 -93.1762      45 -93.1725
      46 -93.0182      47 -93.0812      48 -93.0153
 
 
 
 E-fermi :   2.0504     XC(G=0):  -7.7998     alpha+bet : -7.7647


 k-point     1 :       0.0000    0.0000    0.0000
  band No.  band energies     occupation 
      1     -10.8458      2.00000
      2     -10.7173      2.00000
      3     -10.6703      2.00000
      4     -10.5361      2.00000
      5     -10.4821      2.00000
      6     -10.2567      2.00000
      7     -10.2248      2.00000
      8     -10.0449      2.00000
      9      -9.8901      2.00000
     10      -9.8834      2.00000
     11      -9.8710      2.00000
     12      -9.8539      2.00000
     13      -9.8476      2.00000
     14      -9.8080      2.00000
     15      -9.8065      2.00000
     16      -9.7407      2.00000
     17      -9.7334      2.00000
     18      -9.7133      2.00000
     19      -9.7055      2.00000
     20      -9.7038      2.00000
     21      -9.6852      2.00000
     22      -9.6615      2.00000
     23      -9.6543      2.00000
     24      -9.6272      2.00000
     25      -9.6150      2.00000
     26      -9.6067      2.00000
     27      -9.5896      2.00000
     28      -9.5645      2.00000
     29      -9.5555      2.00000
     30      -9.5527      2.00000
     31      -9.5425      2.00000
     32      -9.5114      2.00000
     33      -8.2255      2.00000
     34      -8.1249      2.00000
     35      -8.1151      2.00000
     36      -7.8839      2.00000
     37      -7.8577      2.00000
     38      -7.6470      2.00000
     39      -7.6341      2.00000
     40      -7.6304      2.00000
     41      -1.8234      2.00000
     42      -1.7636      2.00000
     43      -1.7209      2.00000
     44      -1.7044      2.00000
     45      -1.6583      2.00000
     46      -1.5889      2.00000
     47      -1.5338      2.00000
     48      -1.4777      2.00000
     49      -1.4726      2.00000
     50      -1.4426      2.00000
     51      -1.4372      2.00000
     52      -1.3966      2.00000
     53      -1.3609      2.00000
     54      -1.3317      2.00000
     55      -1.3272      2.00000
     56      -1.2799      2.00000
     57      -1.2352      2.00000
     58      -1.2256      2.00000
     59      -1.1606      2.00000
     60      -1.1169      2.00000
     61      -1.1007      2.00000
     62      -1.0677      2.00000
     63      -1.0239      2.00000
     64      -1.0224      2.00000
     65      -1.0172      2.00000
     66      -1.0006      2.00000
     67      -0.9900      2.00000
     68      -0.9886      2.00000
     69      -0.9623      2.00000
     70      -0.9249      2.00000
     71      -0.9214      2.00000
     72      -0.9196      2.00000
     73      -0.8917      2.00000
     74      -0.8540      2.00000
     75      -0.8497      2.00000
     76      -0.8216      2.00000
     77      -0.8172      2.00000
     78      -0.8112      2.00000
     79      -0.7818      2.00000
     80      -0.7340      2.00000
     81      -0.7034      2.00000
     82      -0.7021      2.00000
     83      -0.6670      2.00000
     84      -0.6421      2.00000
     85      -0.6363      2.00000
     86      -0.6260      2.00000
     87      -0.5775      2.00000
     88      -0.5527      2.00000
     89      -0.5459      2.00000
     90      -0.5117      2.00000
     91      -0.4957      2.00000
     92      -0.4738      2.00000
     93      -0.4704      2.00000
     94      -0.4199      2.00000
     95      -0.4042      2.00000
     96      -0.3780      2.00000
     97      -0.3604      2.00000
     98      -0.3537      2.00000
     99      -0.3350      2.00000
    100      -0.3234      2.00000
    101      -0.2876      2.00000
    102      -0.2667      2.00000
    103      -0.2607      2.00000
    104      -0.2261      2.00000
    105      -0.2149      2.00000
    106      -0.2038      2.00000
    107      -0.1746      2.00000
    108      -0.1602      2.00000
    109      -0.1350      2.00000
    110      -0.1238      2.00000
    111      -0.0651      2.00000
    112      -0.0537      2.00000
    113       0.0756      2.00000
    114       0.1232      2.00000
    115       0.1606      2.00000
    116       0.1731      2.00000
    117       0.1842      2.00000
    118       0.2100      2.00000
    119       0.2342      2.00000
    120       0.2405      2.00000
    121       0.2524      2.00000
    122       0.2869      2.00000
    123       0.3507      2.00000
    124       0.3960      2.00000
    125       0.3968      2.00000
    126       0.4141      2.00000
    127       0.4792      2.00000
    128       0.5167      2.00000
    129       0.5266      2.00000
    130       0.5278      2.00000
    131       0.5421      2.00000
    132       0.5496      2.00000
    133       0.5792      2.00000
    134       0.6380      2.00000
    135       0.6890      2.00000
    136       0.7071      2.00000
    137       0.7101      2.00000
    138       0.7136      2.00000
    139       0.7251      2.00000
    140       0.7769      2.00000
    141       0.7881      2.00000
    142       0.7896      2.00000
    143       0.8208      2.00000
    144       0.8367      2.00000
    145       0.8467      2.00000
    146       0.8929      2.00000
    147       0.9381      2.00000
    148       0.9601      2.00000
    149       0.9882      2.00000
    150       1.0287      2.00000
    151       1.0627      2.00000
    152       1.0921      2.00000
    153       1.1010      2.00000
    154       1.1464      2.00000
    155       1.1603      2.00000
    156       1.1757      2.00000
    157       1.1954      2.00000
    158       1.2007      2.00000
    159       1.2368      2.00000
    160       1.3039      2.00000
    161       1.3591      2.00000
    162       1.4015      2.00000
    163       1.4513      2.00000
    164       1.4784      2.00000
    165       1.5297      2.00000
    166       1.5411      2.00000
    167       1.5681      2.00000
    168       1.5954      2.00000
    169       1.7542      2.00000
    170       1.7612      2.00000
    171       1.8703      2.00000
    172       1.8860      2.00000
    173       1.9926      2.00000
    174       2.0036      2.00000
    175       2.0199      2.00000
    176       2.0504      2.00000
    177       3.8357      0.00000
    178       3.9996      0.00000
    179       4.0015      0.00000
    180       4.1163      0.00000
    181       4.1563      0.00000
    182       4.3377      0.00000
    183       4.3384      0.00000
    184       4.3910      0.00000
    185       4.4138      0.00000
    186       4.4345      0.00000
    187       4.5162      0.00000
    188       4.5252      0.00000
    189       4.5532      0.00000
    190       4.5599      0.00000
    191       4.5967      0.00000
    192       4.6034      0.00000
    193       4.6426      0.00000
    194       4.6997      0.00000
    195       4.7286      0.00000
    196       4.7333      0.00000
    197       4.7945      0.00000
    198       4.8250      0.00000
    199       4.8301      0.00000
    200       4.9487      0.00000
    201       5.0696      0.00000
    202       5.2649      0.00000
    203       5.5819      0.00000
    204       5.7281      0.00000
    205       5.9071      0.00000
    206       5.9273      0.00000
    207       5.9466      0.00000
    208       5.9814      0.00000
    209       7.1527      0.00000
    210       7.2599      0.00000
    211       7.2664      0.00000

 k-point     2 :       0.2500    0.0000   -0.0000
  band No.  band energies     occupation 
      1     -10.8310      2.00000
      2     -10.7229      2.00000
      3     -10.6908      2.00000
      4     -10.5334      2.00000
      5     -10.4787      2.00000
      6     -10.2558      2.00000
      7     -10.2132      2.00000
      8     -10.0556      2.00000
      9      -9.8962      2.00000
     10      -9.8928      2.00000
     11      -9.8737      2.00000
     12      -9.8550      2.00000
     13      -9.8498      2.00000
     14      -9.7985      2.00000
     15      -9.7871      2.00000
     16      -9.7442      2.00000
     17      -9.7297      2.00000
     18      -9.7188      2.00000
     19      -9.6981      2.00000
     20      -9.6950      2.00000
     21      -9.6912      2.00000
     22      -9.6611      2.00000
     23      -9.6490      2.00000
     24      -9.6334      2.00000
     25      -9.6115      2.00000
     26      -9.6098      2.00000
     27      -9.5845      2.00000
     28      -9.5698      2.00000
     29      -9.5588      2.00000
     30      -9.5527      2.00000
     31      -9.5408      2.00000
     32      -9.5171      2.00000
     33      -8.2307      2.00000
     34      -8.1218      2.00000
     35      -8.1148      2.00000
     36      -7.8824      2.00000
     37      -7.8585      2.00000
     38      -7.6796      2.00000
     39      -7.6304      2.00000
     40      -7.6018      2.00000
     41      -1.8017      2.00000
     42      -1.7488      2.00000
     43      -1.7199      2.00000
     44      -1.6904      2.00000
     45      -1.6515      2.00000
     46      -1.6102      2.00000
     47      -1.5640      2.00000
     48      -1.5474      2.00000
     49      -1.4956      2.00000
     50      -1.4525      2.00000
     51      -1.3961      2.00000
     52      -1.3856      2.00000
     53      -1.3540      2.00000
     54      -1.3288      2.00000
     55      -1.3055      2.00000
     56      -1.2746      2.00000
     57      -1.2259      2.00000
     58      -1.2026      2.00000
     59      -1.1818      2.00000
     60      -1.1317      2.00000
     61      -1.1180      2.00000
     62      -1.0848      2.00000
     63      -1.0516      2.00000
     64      -1.0382      2.00000
     65      -1.0215      2.00000
     66      -1.0019      2.00000
     67      -0.9794      2.00000
     68      -0.9681      2.00000
     69      -0.9452      2.00000
     70      -0.9386      2.00000
     71      -0.9168      2.00000
     72      -0.9039      2.00000
     73      -0.8896      2.00000
     74      -0.8744      2.00000
     75      -0.8436      2.00000
     76      -0.8223      2.00000
     77      -0.8156      2.00000
     78      -0.8087      2.00000
     79      -0.7658      2.00000
     80      -0.7550      2.00000
     81      -0.7069      2.00000
     82      -0.6824      2.00000
     83      -0.6593      2.00000
     84      -0.6536      2.00000
     85      -0.6392      2.00000
     86      -0.5956      2.00000
     87      -0.5847      2.00000
     88      -0.5570      2.00000
     89      -0.5136      2.00000
     90      -0.5032      2.00000
     91      -0.4847      2.00000
     92      -0.4746      2.00000
     93      -0.4450      2.00000
     94      -0.4222      2.00000
     95      -0.4033      2.00000
     96      -0.3915      2.00000
     97      -0.3780      2.00000
     98      -0.3709      2.00000
     99      -0.3421      2.00000
    100      -0.3175      2.00000
    101      -0.3059      2.00000
    102      -0.2828      2.00000
    103      -0.2286      2.00000
    104      -0.2263      2.00000
    105      -0.2102      2.00000
    106      -0.1811      2.00000
    107      -0.1637      2.00000
    108      -0.1607      2.00000
    109      -0.1473      2.00000
    110      -0.1393      2.00000
    111      -0.1045      2.00000
    112      -0.0531      2.00000
    113       0.0820      2.00000
    114       0.1089      2.00000
    115       0.1284      2.00000
    116       0.1473      2.00000
    117       0.1750      2.00000
    118       0.2264      2.00000
    119       0.2478      2.00000
    120       0.2628      2.00000
    121       0.2845      2.00000
    122       0.3350      2.00000
    123       0.3492      2.00000
    124       0.3550      2.00000
    125       0.4146      2.00000
    126       0.4467      2.00000
    127       0.4661      2.00000
    128       0.5111      2.00000
    129       0.5253      2.00000
    130       0.5530      2.00000
    131       0.5653      2.00000
    132       0.5898      2.00000
    133       0.6012      2.00000
    134       0.6248      2.00000
    135       0.6515      2.00000
    136       0.6853      2.00000
    137       0.6978      2.00000
    138       0.7183      2.00000
    139       0.7547      2.00000
    140       0.7589      2.00000
    141       0.7757      2.00000
    142       0.8123      2.00000
    143       0.8181      2.00000
    144       0.8314      2.00000
    145       0.8652      2.00000
    146       0.9008      2.00000
    147       0.9707      2.00000
    148       0.9866      2.00000
    149       0.9902      2.00000
    150       1.0117      2.00000
    151       1.0204      2.00000
    152       1.0795      2.00000
    153       1.1237      2.00000
    154       1.1471      2.00000
    155       1.1521      2.00000
    156       1.1555      2.00000
    157       1.1845      2.00000
    158       1.2108      2.00000
    159       1.2403      2.00000
    160       1.2928      2.00000
    161       1.3565      2.00000
    162       1.4084      2.00000
    163       1.4630      2.00000
    164       1.4752      2.00000
    165       1.5210      2.00000
    166       1.5466      2.00000
    167       1.5951      2.00000
    168       1.6174      2.00000
    169       1.7512      2.00000
    170       1.7638      2.00000
    171       1.8472      2.00000
    172       1.8713      2.00000
    173       1.9587      2.00000
    174       1.9679      2.00000
    175       2.0004      2.00000
    176       2.0133      2.00000
    177       3.8945      0.00000
    178       3.9861      0.00000
    179       4.0218      0.00000
    180       4.1392      0.00000
    181       4.1590      0.00000
    182       4.2959      0.00000
    183       4.3182      0.00000
    184       4.3885      0.00000
    185       4.4176      0.00000
    186       4.4455      0.00000
    187       4.4656      0.00000
    188       4.5044      0.00000
    189       4.5714      0.00000
    190       4.5818      0.00000
    191       4.5939      0.00000
    192       4.6213      0.00000
    193       4.6470      0.00000
    194       4.6576      0.00000
    195       4.6953      0.00000
    196       4.7541      0.00000
    197       4.7813      0.00000
    198       4.8231      0.00000
    199       4.8538      0.00000
    200       4.9277      0.00000
    201       5.1965      0.00000
    202       5.3493      0.00000
    203       5.5928      0.00000
    204       5.7392      0.00000
    205       5.8059      0.00000
    206       5.8267      0.00000
    207       5.9492      0.00000
    208       5.9616      0.00000
    209       7.2650      0.00000
    210       7.2985      0.00000
    211       7.3676      0.00000

 k-point     3 :       0.5000    0.0000    0.0000
  band No.  band energies     occupation 
      1     -10.8073      2.00000
      2     -10.7465      2.00000
      3     -10.7004      2.00000
      4     -10.5317      2.00000
      5     -10.4757      2.00000
      6     -10.2560      2.00000
      7     -10.2003      2.00000
      8     -10.0657      2.00000
      9      -9.9018      2.00000
     10      -9.9006      2.00000
     11      -9.8764      2.00000
     12      -9.8564      2.00000
     13      -9.8511      2.00000
     14      -9.7878      2.00000
     15      -9.7680      2.00000
     16      -9.7447      2.00000
     17      -9.7401      2.00000
     18      -9.7114      2.00000
     19      -9.7046      2.00000
     20      -9.6955      2.00000
     21      -9.6738      2.00000
     22      -9.6679      2.00000
     23      -9.6430      2.00000
     24      -9.6224      2.00000
     25      -9.6213      2.00000
     26      -9.6164      2.00000
     27      -9.5820      2.00000
     28      -9.5773      2.00000
     29      -9.5575      2.00000
     30      -9.5508      2.00000
     31      -9.5349      2.00000
     32      -9.5289      2.00000
     33      -8.2357      2.00000
     34      -8.1208      2.00000
     35      -8.1123      2.00000
     36      -7.8813      2.00000
     37      -7.8590      2.00000
     38      -7.6965      2.00000
     39      -7.6279      2.00000
     40      -7.5876      2.00000
     41      -1.7652      2.00000
     42      -1.7478      2.00000
     43      -1.6978      2.00000
     44      -1.6745      2.00000
     45      -1.6610      2.00000
     46      -1.6400      2.00000
     47      -1.5948      2.00000
     48      -1.5704      2.00000
     49      -1.5236      2.00000
     50      -1.4515      2.00000
     51      -1.4209      2.00000
     52      -1.3847      2.00000
     53      -1.3208      2.00000
     54      -1.3097      2.00000
     55      -1.2946      2.00000
     56      -1.2588      2.00000
     57      -1.2391      2.00000
     58      -1.1921      2.00000
     59      -1.1817      2.00000
     60      -1.1665      2.00000
     61      -1.1529      2.00000
     62      -1.1039      2.00000
     63      -1.0509      2.00000
     64      -1.0210      2.00000
     65      -1.0158      2.00000
     66      -0.9965      2.00000
     67      -0.9700      2.00000
     68      -0.9543      2.00000
     69      -0.9456      2.00000
     70      -0.9363      2.00000
     71      -0.9307      2.00000
     72      -0.9050      2.00000
     73      -0.8691      2.00000
     74      -0.8575      2.00000
     75      -0.8471      2.00000
     76      -0.8357      2.00000
     77      -0.8152      2.00000
     78      -0.8074      2.00000
     79      -0.7898      2.00000
     80      -0.7676      2.00000
     81      -0.6974      2.00000
     82      -0.6746      2.00000
     83      -0.6650      2.00000
     84      -0.6380      2.00000
     85      -0.6335      2.00000
     86      -0.6001      2.00000
     87      -0.5744      2.00000
     88      -0.5231      2.00000
     89      -0.5086      2.00000
     90      -0.5065      2.00000
     91      -0.4941      2.00000
     92      -0.4755      2.00000
     93      -0.4365      2.00000
     94      -0.4277      2.00000
     95      -0.4092      2.00000
     96      -0.3886      2.00000
     97      -0.3597      2.00000
     98      -0.3582      2.00000
     99      -0.3438      2.00000
    100      -0.3339      2.00000
    101      -0.3111      2.00000
    102      -0.3023      2.00000
    103      -0.2369      2.00000
    104      -0.2105      2.00000
    105      -0.1883      2.00000
    106      -0.1805      2.00000
    107      -0.1669      2.00000
    108      -0.1645      2.00000
    109      -0.1562      2.00000
    110      -0.1270      2.00000
    111      -0.1221      2.00000
    112      -0.0544      2.00000
    113       0.0358      2.00000
    114       0.0556      2.00000
    115       0.0985      2.00000
    116       0.1430      2.00000
    117       0.1827      2.00000
    118       0.2044      2.00000
    119       0.2606      2.00000
    120       0.2881      2.00000
    121       0.3127      2.00000
    122       0.3833      2.00000
    123       0.3986      2.00000
    124       0.4154      2.00000
    125       0.4423      2.00000
    126       0.4555      2.00000
    127       0.4907      2.00000
    128       0.5093      2.00000
    129       0.5358      2.00000
    130       0.5457      2.00000
    131       0.5558      2.00000
    132       0.5733      2.00000
    133       0.5772      2.00000
    134       0.6344      2.00000
    135       0.6403      2.00000
    136       0.6553      2.00000
    137       0.7102      2.00000
    138       0.7183      2.00000
    139       0.7464      2.00000
    140       0.7557      2.00000
    141       0.7685      2.00000
    142       0.7974      2.00000
    143       0.8160      2.00000
    144       0.8727      2.00000
    145       0.8823      2.00000
    146       0.9247      2.00000
    147       0.9377      2.00000
    148       0.9691      2.00000
    149       0.9997      2.00000
    150       1.0333      2.00000
    151       1.0620      2.00000
    152       1.0668      2.00000
    153       1.0825      2.00000
    154       1.0919      2.00000
    155       1.1414      2.00000
    156       1.1651      2.00000
    157       1.1936      2.00000
    158       1.2296      2.00000
    159       1.2464      2.00000
    160       1.2703      2.00000
    161       1.3931      2.00000
    162       1.4093      2.00000
    163       1.4410      2.00000
    164       1.4613      2.00000
[...]
    143       0.8512      2.00000
    144       0.8537      2.00000
    145       0.9195      2.00000
    146       0.9296      2.00000
    147       1.0132      2.00000
    148       1.0206      2.00000
    149       1.0392      2.00000
    150       1.0462      2.00000
    151       1.0728      2.00000
    152       1.0775      2.00000
    153       1.0951      2.00000
    154       1.0978      2.00000
    155       1.1603      2.00000
    156       1.1636      2.00000
    157       1.2040      2.00000
    158       1.2071      2.00000
    159       1.2617      2.00000
    160       1.2640      2.00000
    161       1.4366      2.00000
    162       1.4413      2.00000
    163       1.5712      2.00000
    164       1.5764      2.00000
    165       1.5840      2.00000
    166       1.5882      2.00000
    167       1.6748      2.00000
    168       1.6791      2.00000
    169       1.7499      2.00000
    170       1.7540      2.00000
    171       1.8249      2.00000
    172       1.8283      2.00000
    173       1.8605      2.00000
    174       1.8650      2.00000
    175       1.9759      2.00000
    176       1.9785      2.00000
    177       3.8018      0.00000
    178       3.8066      0.00000
    179       3.9849      0.00000
    180       3.9882      0.00000
    181       4.0981      0.00000
    182       4.1028      0.00000
    183       4.2505      0.00000
    184       4.2537      0.00000
    185       4.3196      0.00000
    186       4.3239      0.00000
    187       4.4223      0.00000
    188       4.4271      0.00000
    189       4.5973      0.00000
    190       4.6002      0.00000
    191       4.6741      0.00000
    192       4.6804      0.00000
    193       4.7673      0.00000
    194       4.7732      0.00000
    195       4.8175      0.00000
    196       4.8228      0.00000
    197       4.8813      0.00000
    198       4.8840      0.00000
    199       5.0109      0.00000
    200       5.0123      0.00000
    201       5.5489      0.00000
    202       5.5521      0.00000
    203       5.5862      0.00000
    204       5.5923      0.00000
    205       5.6329      0.00000
    206       5.6552      0.00000
    207       5.7819      0.00000
    208       5.7867      0.00000
    209       7.3248      0.00000
    210       7.3277      0.00000
    211       7.4937      0.00000

 k-point    36 :       0.5000    0.5000    0.5000
  band No.  band energies     occupation 
      1     -10.7713      2.00000
      2     -10.7696      2.00000
      3     -10.6422      2.00000
      4     -10.6418      2.00000
      5     -10.3853      2.00000
      6     -10.3846      2.00000
      7     -10.1212      2.00000
      8     -10.1159      2.00000
      9      -9.9078      2.00000
     10      -9.9077      2.00000
     11      -9.8235      2.00000
     12      -9.8196      2.00000
     13      -9.7934      2.00000
     14      -9.7923      2.00000
     15      -9.7501      2.00000
     16      -9.7493      2.00000
     17      -9.7296      2.00000
     18      -9.7285      2.00000
     19      -9.7063      2.00000
     20      -9.7022      2.00000
     21      -9.6960      2.00000
     22      -9.6933      2.00000
     23      -9.6406      2.00000
     24      -9.6338      2.00000
     25      -9.6168      2.00000
     26      -9.6155      2.00000
     27      -9.5881      2.00000
     28      -9.5832      2.00000
     29      -9.5570      2.00000
     30      -9.5505      2.00000
     31      -9.5397      2.00000
     32      -9.5384      2.00000
     33      -8.2019      2.00000
     34      -8.2010      2.00000
     35      -8.0086      2.00000
     36      -8.0045      2.00000
     37      -7.7660      2.00000
     38      -7.7659      2.00000
     39      -7.5891      2.00000
     40      -7.5867      2.00000
     41      -1.7853      2.00000
     42      -1.7824      2.00000
     43      -1.6785      2.00000
     44      -1.6779      2.00000
     45      -1.6340      2.00000
     46      -1.6333      2.00000
     47      -1.5419      2.00000
     48      -1.5410      2.00000
     49      -1.4952      2.00000
     50      -1.4933      2.00000
     51      -1.4609      2.00000
     52      -1.4581      2.00000
     53      -1.3798      2.00000
     54      -1.3795      2.00000
     55      -1.2928      2.00000
     56      -1.2917      2.00000
     57      -1.2738      2.00000
     58      -1.2727      2.00000
     59      -1.1480      2.00000
     60      -1.1354      2.00000
     61      -1.0547      2.00000
     62      -1.0449      2.00000
     63      -1.0119      2.00000
     64      -1.0088      2.00000
     65      -0.9982      2.00000
     66      -0.9892      2.00000
     67      -0.9757      2.00000
     68      -0.9663      2.00000
     69      -0.9238      2.00000
     70      -0.9112      2.00000
     71      -0.8902      2.00000
     72      -0.8852      2.00000
     73      -0.8746      2.00000
     74      -0.8724      2.00000
     75      -0.8501      2.00000
     76      -0.8485      2.00000
     77      -0.8322      2.00000
     78      -0.8253      2.00000
     79      -0.7508      2.00000
     80      -0.7489      2.00000
     81      -0.7017      2.00000
     82      -0.6966      2.00000
     83      -0.6270      2.00000
     84      -0.6250      2.00000
     85      -0.5919      2.00000
     86      -0.5873      2.00000
     87      -0.5544      2.00000
     88      -0.5535      2.00000
     89      -0.5292      2.00000
     90      -0.5194      2.00000
     91      -0.4851      2.00000
     92      -0.4794      2.00000
     93      -0.4148      2.00000
     94      -0.4079      2.00000
     95      -0.3869      2.00000
     96      -0.3803      2.00000
     97      -0.3646      2.00000
     98      -0.3588      2.00000
     99      -0.3187      2.00000
    100      -0.3137      2.00000
    101      -0.3112      2.00000
    102      -0.3052      2.00000
    103      -0.2626      2.00000
    104      -0.2556      2.00000
    105      -0.2103      2.00000
    106      -0.2064      2.00000
    107      -0.1922      2.00000
    108      -0.1876      2.00000
    109      -0.1500      2.00000
    110      -0.1488      2.00000
    111      -0.0909      2.00000
    112      -0.0871      2.00000
    113       0.0350      2.00000
    114       0.0364      2.00000
    115       0.1452      2.00000
    116       0.1464      2.00000
    117       0.2290      2.00000
    118       0.2367      2.00000
    119       0.2819      2.00000
    120       0.2849      2.00000
    121       0.3626      2.00000
    122       0.3683      2.00000
    123       0.3712      2.00000
    124       0.3752      2.00000
    125       0.4207      2.00000
    126       0.4217      2.00000
    127       0.4556      2.00000
    128       0.4563      2.00000
    129       0.5099      2.00000
    130       0.5166      2.00000
    131       0.5505      2.00000
    132       0.5553      2.00000
    133       0.5685      2.00000
    134       0.5795      2.00000
    135       0.6085      2.00000
    136       0.6089      2.00000
    137       0.6629      2.00000
    138       0.6714      2.00000
    139       0.6946      2.00000
    140       0.7097      2.00000
    141       0.7391      2.00000
    142       0.7454      2.00000
    143       0.8773      2.00000
    144       0.8806      2.00000
    145       0.9055      2.00000
    146       0.9148      2.00000
    147       1.0292      2.00000
    148       1.0374      2.00000
    149       1.0501      2.00000
    150       1.0577      2.00000
    151       1.0747      2.00000
    152       1.0761      2.00000
    153       1.0884      2.00000
    154       1.0899      2.00000
    155       1.1729      2.00000
    156       1.1738      2.00000
    157       1.1998      2.00000
    158       1.2010      2.00000
    159       1.2645      2.00000
    160       1.2679      2.00000
    161       1.4674      2.00000
    162       1.4730      2.00000
    163       1.5693      2.00000
    164       1.5755      2.00000
    165       1.5841      2.00000
    166       1.5878      2.00000
    167       1.6911      2.00000
    168       1.6959      2.00000
    169       1.7725      2.00000
    170       1.7733      2.00000
    171       1.8258      2.00000
    172       1.8286      2.00000
    173       1.8611      2.00000
    174       1.8616      2.00000
    175       2.0122      2.00000
    176       2.0129      2.00000
    177       3.7047      0.00000
    178       3.7073      0.00000
    179       3.9087      0.00000
    180       3.9098      0.00000
    181       4.0389      0.00000
    182       4.0430      0.00000
    183       4.2273      0.00000
    184       4.2277      0.00000
    185       4.3116      0.00000
    186       4.3176      0.00000
    187       4.4201      0.00000
    188       4.4219      0.00000
    189       4.6118      0.00000
    190       4.6165      0.00000
    191       4.7020      0.00000
    192       4.7044      0.00000
    193       4.8159      0.00000
    194       4.8212      0.00000
    195       4.8468      0.00000
    196       4.8482      0.00000
    197       4.9453      0.00000
    198       4.9503      0.00000
    199       5.0276      0.00000
    200       5.0295      0.00000
    201       5.5337      0.00000
    202       5.5343      0.00000
    203       5.5634      0.00000
    204       5.5642      0.00000
    205       5.6017      0.00000
    206       5.6277      0.00000
    207       5.7964      0.00000
    208       5.7988      0.00000
    209       7.2443      0.00000
    210       7.2488      0.00000
    211       7.5066      0.00000


--------------------------------------------------------------------------------------------------------


 soft charge-density along one line, spin component           1
         0         1         2         3         4         5         6         7         8         9
 total charge-density along one line
 
 pseudopotential strength for first ion, spin component:           1
 -6.461   0.000  -0.002  -0.001  -0.000  -6.596   0.000  -0.001
  0.000  -6.458  -0.001   0.001   0.000   0.000  -6.593  -0.001
 -0.002  -0.001  -6.447  -0.000  -0.004  -0.001  -0.001  -6.581
 -0.001   0.001  -0.000  -6.453   0.000  -0.001   0.001  -0.000
 -0.000   0.000  -0.004   0.000  -6.454  -0.000   0.000  -0.004
 -6.596   0.000  -0.001  -0.001  -0.000  -6.699   0.000  -0.001
  0.000  -6.593  -0.001   0.001   0.000   0.000  -6.696  -0.001
 -0.001  -0.001  -6.581  -0.000  -0.004  -0.001  -0.001  -6.686
 -0.001   0.001  -0.000  -6.588   0.000  -0.000   0.001  -0.000
 -0.000   0.000  -0.004   0.000  -6.589  -0.000   0.000  -0.004
  0.001  -0.000  -0.001  -0.000   0.001   0.001  -0.000  -0.001
  0.001  -0.000  -0.002  -0.001   0.001   0.001  -0.000  -0.002
 -0.006   0.002  -0.004  -0.000  -0.007  -0.006   0.002  -0.004
 -0.000   0.006   0.003  -0.006  -0.000  -0.000   0.006   0.002
  0.006  -0.000   0.004   0.002  -0.006   0.006  -0.000   0.004
 -0.008   0.003  -0.005  -0.000  -0.009  -0.007   0.003  -0.005
 -0.000   0.008   0.003  -0.007  -0.000  -0.000   0.007   0.003
  0.008  -0.000   0.005   0.003  -0.008   0.007  -0.000   0.004
 total augmentation occupancy for first ion, spin component:           1
  2.306   0.002  -0.130   0.000   0.011  -0.333   0.001   0.130   0.004  -0.011  -0.146   0.024   0.025  -0.000  -0.074  -0.004
  0.002   2.302  -0.166   0.008   0.002   0.001  -0.299   0.150  -0.014  -0.008   0.072  -0.015   0.008  -0.045  -0.001   0.001
 -0.130  -0.166   4.083  -0.045  -0.255   0.130   0.150  -1.913   0.042   0.243   0.088  -0.023  -0.101   0.041   0.061   0.004
  0.000   0.008  -0.045   2.278  -0.025   0.004  -0.014   0.042  -0.297   0.027   0.054  -0.012   0.003   0.015  -0.008  -0.000
  0.011   0.002  -0.255  -0.025   4.033  -0.011  -0.008   0.243   0.027  -1.892  -0.225   0.031  -0.211  -0.015  -0.098   0.008
 -0.333   0.001   0.130   0.004  -0.011   0.340  -0.004  -0.130  -0.007   0.011   0.133  -0.028  -0.017   0.000   0.057   0.001
  0.001  -0.299   0.150  -0.014  -0.008  -0.004   0.282  -0.137   0.019   0.013  -0.065   0.016  -0.010   0.032   0.000   0.000
  0.130   0.150  -1.913   0.042   0.243  -0.130  -0.137   1.746  -0.040  -0.232  -0.075   0.017   0.092  -0.039  -0.057  -0.006
  0.004  -0.014   0.042  -0.297   0.027  -0.007   0.019  -0.040   0.298  -0.029  -0.046   0.012  -0.003  -0.008   0.005   0.000
 -0.011  -0.008   0.243   0.027  -1.892   0.011   0.013  -0.232  -0.029   1.750   0.199  -0.036   0.191   0.012   0.093  -0.012
 -0.146   0.072   0.088   0.054  -0.225   0.133  -0.065  -0.075  -0.046   0.199   1.438  -0.307  -0.051  -0.018   0.041   0.005
  0.024  -0.015  -0.023  -0.012   0.031  -0.028   0.016   0.017   0.012  -0.036  -0.307   0.070   0.012   0.004  -0.008  -0.001
  0.025   0.008  -0.101   0.003  -0.211  -0.017  -0.010   0.092  -0.003   0.191  -0.051   0.012   0.080  -0.004   0.009  -0.005
 -0.000  -0.045   0.041   0.015  -0.015   0.000   0.032  -0.039  -0.008   0.012  -0.018   0.004  -0.004   0.085  -0.002   0.000
 -0.074  -0.001   0.061  -0.008  -0.098   0.057   0.000  -0.057   0.005   0.093   0.041  -0.008   0.009  -0.002   0.104  -0.001
 -0.004   0.001   0.004  -0.000   0.008   0.001   0.000  -0.006   0.000  -0.012   0.005  -0.001  -0.005   0.000  -0.001   0.000
 -0.000   0.005  -0.001  -0.004   0.001   0.000  -0.002   0.003   0.000  -0.001   0.002  -0.000   0.000  -0.006   0.000  -0.000
  0.007  -0.000  -0.002   0.001   0.003  -0.004   0.000   0.003  -0.000  -0.006  -0.004   0.001  -0.001   0.000  -0.007   0.000


------------------------ aborting loop because EDIFF is reached ----------------------------------------


 


 total charge     
 
# of ion       s       p       d       tot
------------------------------------------
    1        0.242   0.151   9.320   9.713
    2        0.238   0.147   9.323   9.708
    3        0.253   0.158   9.312   9.723
    4        0.242   0.151   9.320   9.712
    5        0.255   0.160   9.311   9.726
    6        0.242   0.151   9.320   9.713
    7        0.238   0.147   9.323   9.708
    8        0.242   0.151   9.319   9.712
    9        1.833   1.401   0.138   3.373
   10        1.835   1.397   0.139   3.371
   11        1.833   1.400   0.135   3.368
   12        1.834   1.401   0.138   3.372
   13        1.835   1.398   0.139   3.371
   14        1.834   1.400   0.138   3.372
   15        1.834   1.400   0.138   3.372
   16        1.833   1.400   0.135   3.368
   17        1.514   2.742   0.017   4.273
   18        1.518   2.742   0.011   4.271
   19        1.518   2.742   0.012   4.272
   20        1.518   2.742   0.011   4.271
   21        1.518   2.742   0.013   4.273
   22        1.518   2.742   0.012   4.272
   23        1.518   2.743   0.012   4.273
   24        1.514   2.742   0.017   4.274
   25        1.517   2.745   0.013   4.275
   26        1.514   2.743   0.015   4.272
   27        1.516   2.743   0.015   4.274
   28        1.514   2.743   0.015   4.272
   29        1.513   2.748   0.016   4.276
   30        1.516   2.743   0.015   4.274
   31        1.513   2.748   0.016   4.276
   32        1.517   2.745   0.013   4.275
   33        1.518   2.742   0.011   4.271
   34        1.518   2.742   0.011   4.272
   35        1.518   2.742   0.011   4.271
   36        1.514   2.742   0.017   4.274
   37        1.514   2.742   0.017   4.274
   38        1.518   2.742   0.012   4.273
   39        1.518   2.742   0.012   4.272
   40        1.518   2.742   0.013   4.273
   41        1.514   2.744   0.015   4.273
   42        1.515   2.744   0.015   4.274
   43        1.514   2.744   0.015   4.273
   44        1.518   2.746   0.012   4.275
   45        1.518   2.746   0.012   4.275
   46        1.513   2.747   0.016   4.276
   47        1.515   2.744   0.015   4.274
   48        1.513   2.747   0.016   4.276
--------------------------------------------------
tot         65.137 100.209  76.088 241.433
 


--------------------------------------------------------------------------------------------------------



  FREE ENERGIE OF THE ION-ELECTRON SYSTEM (eV)
  ---------------------------------------------------
  free  energy   TOTEN  =      -119.96422745 eV

  energy  without entropy=     -119.96422745  energy(sigma->0) =     -119.96422745
 


--------------------------------------------------------------------------------------------------------




--------------------------------------------------------------------------------------------------------


 writing wavefunctions
     LOOP+:  cpu time  119.6748: real time  120.5686
    4ORBIT:  cpu time    0.0000: real time    0.0000
 


 total charge     
 
# of ion       s       p       d       tot
------------------------------------------
    1        0.242   0.151   9.320   9.713
    2        0.238   0.147   9.323   9.708
    3        0.253   0.158   9.312   9.723
    4        0.242   0.151   9.320   9.712
    5        0.255   0.160   9.311   9.726
    6        0.242   0.151   9.320   9.713
    7        0.238   0.147   9.323   9.708
    8        0.242   0.151   9.319   9.712
    9        1.833   1.401   0.138   3.373
   10        1.835   1.397   0.139   3.371
   11        1.833   1.400   0.135   3.368
   12        1.834   1.401   0.138   3.372
   13        1.835   1.398   0.139   3.371
   14        1.834   1.400   0.138   3.372
   15        1.834   1.400   0.138   3.372
   16        1.833   1.400   0.135   3.368
   17        1.514   2.742   0.017   4.273
   18        1.518   2.742   0.011   4.271
   19        1.518   2.742   0.012   4.272
   20        1.518   2.742   0.011   4.271
   21        1.518   2.742   0.013   4.273
   22        1.518   2.742   0.012   4.272
   23        1.518   2.743   0.012   4.273
   24        1.514   2.742   0.017   4.274
   25        1.517   2.745   0.013   4.275
   26        1.514   2.743   0.015   4.272
   27        1.516   2.743   0.015   4.274
   28        1.514   2.743   0.015   4.272
   29        1.513   2.748   0.016   4.276
   30        1.516   2.743   0.015   4.274
   31        1.513   2.748   0.016   4.276
   32        1.517   2.745   0.013   4.275
   33        1.518   2.742   0.011   4.271
   34        1.518   2.742   0.011   4.272
   35        1.518   2.742   0.011   4.271
   36        1.514   2.742   0.017   4.274
   37        1.514   2.742   0.017   4.274
   38        1.518   2.742   0.012   4.273
   39        1.518   2.742   0.012   4.272
   40        1.518   2.742   0.013   4.273
   41        1.514   2.744   0.015   4.273
   42        1.515   2.744   0.015   4.274
   43        1.514   2.744   0.015   4.273
   44        1.518   2.746   0.012   4.275
   45        1.518   2.746   0.012   4.275
   46        1.513   2.747   0.016   4.276
   47        1.515   2.744   0.015   4.274
   48        1.513   2.747   0.016   4.276
--------------------------------------------------
tot         65.137 100.209  76.088 241.433
 
 BZINTS: Fermi energy:    2.050355;  352.000000 electrons
         Band energy:-0.759051E+03;  BLOECHL correction:   -0.000000

 total amount of memory used by VASP MPI-rank0  2782079. kBytes
=======================================================================

   base      :      30000. kBytes
   nonl-proj :     303764. kBytes
   fftplans  :      34720. kBytes
   grid      :      70000. kBytes
   one-center:        746. kBytes
   wavefun   :    2342849. kBytes
 
  
  
 General timing and accounting informations for this job:
 ========================================================
  
                  Total CPU time used (sec):      159.060
                            User time (sec):      154.393
                          System time (sec):        4.667
                         Elapsed time (sec):      161.373
  
                   Maximum memory used (kb):     4340772.
                   Average memory used (kb):           0.
  
                          Minor page faults:       422990
                          Major page faults:            0
                 Voluntary context switches:         2370
