 vasp.6.1.0 28Jan20 (build Jan 13 2021 21:44:47) complex                        
  
 executed on             LinuxIFC date 2021.09.12  19:38:26
 running on    9 total cores
 distrk:  each k-point on    1 cores,    9 groups
 distr:  one band on NCORE=   1 cores,    1 groups


--------------------------------------------------------------------------------------------------------


 INCAR:
 POTCAR:    PAW_PBE Ag 02Apr2005                  
 POTCAR:    PAW_PBE Bi 08Apr2002                  
 POTCAR:    PAW_PBE I 08Apr2002                   
 -----------------------------------------------------------------------------
|                                                                             |
|           W    W    AA    RRRRR   N    N  II  N    N   GGGG   !!!           |
|           W    W   A  A   R    R  NN   N  II  NN   N  G    G  !!!           |
|           W    W  A    A  R    R  N N  N  II  N N  N  G       !!!           |
|           W WW W  AAAAAA  RRRRR   N  N N  II  N  N N  G  GGG   !            |
|           WW  WW  A    A  R   R   N   NN  II  N   NN  G    G                |
|           W    W  A    A  R    R  N    N  II  N    N   GGGG   !!!           |
|                                                                             |
|     For optimal performance we recommend to set                             |
|       NCORE = 4 - approx SQRT(number of cores).                             |
|     NCORE specifies how many cores store one orbital (NPAR=cpu/NCORE).      |
|     This setting can greatly improve the performance of VASP for DFT.       |
|     The default, NCORE=1 might be grossly inefficient on modern             |
|     multi-core architectures or massively parallel machines. Do your        |
|     own testing!!!!                                                         |
|     Unfortunately you need to use the default for GW and RPA                |
|     calculations (for HF NCORE is supported but not extensively tested      |
|     yet).                                                                   |
|                                                                             |
 -----------------------------------------------------------------------------

 POTCAR:    PAW_PBE Ag 02Apr2005                  
   VRHFIN =Ag : s1 d10                                                                              
   LEXCH  = PE                                                                                      
   EATOM  =  1037.2675 eV,   76.2370 Ry                                                             
                                                                                                    
   TITEL  = PAW_PBE Ag 02Apr2005                                                                    
   LULTRA =        F    use ultrasoft PP ?                                                          
   IUNSCR =        1    unscreen: 0-lin 1-nonlin 2-no                                               
   RPACOR =    2.000    partial core radius                                                         
   POMASS =  107.868; ZVAL   =   11.000    mass and valenz                                          
   RCORE  =    2.500    outmost cutoff radius                                                       
   RWIGS  =    2.840; RWIGS  =    1.503    wigner-seitz radius (au A)                               
   ENMAX  =  249.844; ENMIN  =  187.383 eV                                                          
   ICORE  =        3    local potential                                                             
   LCOR   =        T    correct aug charges                                                         
   LPAW   =        T    paw PP                                                                      
   EAUG   =  412.496                                                                                
   DEXC   =    0.000                                                                                
   RMAX   =    2.560    core radius for proj-oper                                                   
   RAUG   =    1.300    factor for augmentation sphere                                              
   RDEP   =    2.576    radius for radial grids                                                     
   RDEPT  =    2.072    core radius for aug-charge                                                  
                                                                                                    
   Atomic configuration                                                                             
   12 entries                                                                                       
     n  l   j            E        occ.                                                              
     1  0  0.50    -25324.9161   2.0000                                                             
     2  0  0.50     -3728.5341   2.0000                                                             
     2  1  1.50     -3344.0404   6.0000                                                             
     3  0  0.50      -683.5581   2.0000                                                             
     3  1  1.50      -557.3225   6.0000                                                             
     3  2  2.50      -358.3853  10.0000                                                             
     4  0  0.50       -95.0341   2.0000                                                             
     4  1  1.50       -58.5511   6.0000                                                             
     4  2  2.50        -7.4440  10.0000                                                             
     5  0  0.50        -4.4045   1.0000                                                             
     5  1  0.50        -1.3606   0.0000                                                             
     4  3  2.50        -1.3606   0.0000                                                             
   Description                                                                                      
     l       E           TYP  RCUT    TYP  RCUT                                                     
     2     -7.4439781     23  2.400                                                                 
     2     -8.8045607     23  2.400                                                                 
     0     -4.4044681     23  2.400                                                                 
     0      1.9520038     23  2.400                                                                 
     1     -1.3605826     23  2.500                                                                 
     1     27.2116520     23  2.500                                                                 
     3     -4.0817478     23  2.400                                                                 
  local pseudopotential read in
  partial core-charges read in
  partial kinetic energy density read in
  atomic valenz-charges read in
  non local Contribution for L=           2  read in
    real space projection operators read in
  non local Contribution for L=           2  read in
    real space projection operators read in
  non local Contribution for L=           0  read in
    real space projection operators read in
  non local Contribution for L=           0  read in
    real space projection operators read in
  non local Contribution for L=           1  read in
    real space projection operators read in
  non local Contribution for L=           1  read in
    real space projection operators read in
    PAW grid and wavefunctions read in
 
   number of l-projection  operators is LMAX  =           6
   number of lm-projection operators is LMMAX =          18
 
 POTCAR:    PAW_PBE Bi 08Apr2002                  
   VRHFIN =Bi:                                                                                      
   LEXCH  = PE                                                                                      
   EATOM  =   150.8133 eV,   11.0845 Ry                                                             
                                                                                                    
   TITEL  = PAW_PBE Bi 08Apr2002                                                                    
   LULTRA =        F    use ultrasoft PP ?                                                          
   IUNSCR =        1    unscreen: 0-lin 1-nonlin 2-no                                               
   RPACOR =    2.200    partial core radius                                                         
   POMASS =  208.980; ZVAL   =    5.000    mass and valenz                                          
   RCORE  =    3.000    outmost cutoff radius                                                       
   RWIGS  =    3.090; RWIGS  =    1.635    wigner-seitz radius (au A)                               
   ENMAX  =  105.037; ENMIN  =   78.777 eV                                                          
   ICORE  =        3    local potential                                                             
   LCOR   =        T    correct aug charges                                                         
   LPAW   =        T    paw PP                                                                      
   EAUG   =  265.427                                                                                
   DEXC   =    0.000                                                                                
   RMAX   =    3.067    core radius for proj-oper                                                   
   RAUG   =    1.300    factor for augmentation sphere                                              
   RDEP   =    3.012    radius for radial grids                                                     
   RDEPT  =    2.604    core radius for aug-charge                                                  
                                                                                                    
   Atomic configuration                                                                             
   17 entries                                                                                       
     n  l   j            E        occ.                                                              
     1  0  0.50    -90639.6582   2.0000                                                             
     2  0  0.50    -16282.4667   2.0000                                                             
     2  1  1.50    -13922.8287   6.0000                                                             
     3  0  0.50     -3930.4763   2.0000                                                             
     3  1  1.50     -3256.7013   6.0000                                                             
     3  2  2.50     -2581.6169  10.0000                                                             
     4  0  0.50      -902.2614   2.0000                                                             
     4  1  1.50      -681.5915   6.0000                                                             
     4  2  2.50      -429.8249  10.0000                                                             
     4  3  3.50      -152.6004  14.0000                                                             
     5  0  0.50      -157.7156   2.0000                                                             
     5  1  1.50       -95.8054   6.0000                                                             
     5  2  2.50       -27.0806  10.0000                                                             
     6  0  0.50       -14.4732   2.0000                                                             
     6  1  1.50        -4.5702   3.0000                                                             
     6  2  2.50        -2.7212   0.0000                                                             
     5  3  2.50        -2.7212   0.0000                                                             
   Description                                                                                      
     l       E           TYP  RCUT    TYP  RCUT                                                     
     0    -14.4732299     23  3.000                                                                 
     0    -12.2452434     23  3.000                                                                 
     1     -4.5701666     23  3.000                                                                 
     1    -13.6058260     23  3.000                                                                 
     2     -2.7211652     23  3.000                                                                 
     3     -1.3605826      7  3.000                                                                 
  local pseudopotential read in
  partial core-charges read in
  partial kinetic energy density read in
  kinetic energy density of atom read in
  atomic valenz-charges read in
  non local Contribution for L=           0  read in
    real space projection operators read in
  non local Contribution for L=           0  read in
    real space projection operators read in
  non local Contribution for L=           1  read in
    real space projection operators read in
  non local Contribution for L=           1  read in
    real space projection operators read in
  non local Contribution for L=           2  read in
    real space projection operators read in
    PAW grid and wavefunctions read in
 
   number of l-projection  operators is LMAX  =           5
   number of lm-projection operators is LMMAX =          13
 
 POTCAR:    PAW_PBE I 08Apr2002                   
   VRHFIN =I : s2p5                                                                                 
   LEXCH  = PE                                                                                      
   EATOM  =   315.8678 eV,   23.2156 Ry                                                             
                                                                                                    
   TITEL  = PAW_PBE I 08Apr2002                                                                     
   LULTRA =        F    use ultrasoft PP ?                                                          
   IUNSCR =        1    unscreen: 0-lin 1-nonlin 2-no                                               
   RPACOR =    2.200    partial core radius                                                         
   POMASS =  126.904; ZVAL   =    7.000    mass and valenz                                          
   RCORE  =    2.300    outmost cutoff radius                                                       
   RWIGS  =    2.810; RWIGS  =    1.487    wigner-seitz radius (au A)                               
   ENMAX  =  175.647; ENMIN  =  131.735 eV                                                          
   ICORE  =        3    local potential                                                             
   LCOR   =        T    correct aug charges                                                         
   LPAW   =        T    paw PP                                                                      
   EAUG   =  370.139                                                                                
   DEXC   =    0.000                                                                                
   RMAX   =    2.359    core radius for proj-oper                                                   
   RAUG   =    1.300    factor for augmentation sphere                                              
   RDEP   =    2.392    radius for radial grids                                                     
   RDEPT  =    2.170    core radius for aug-charge                                                  
                                                                                                    
   Atomic configuration                                                                             
   13 entries                                                                                       
     n  l   j            E        occ.                                                              
     1  0  0.50    -32976.3739   2.0000                                                             
     2  0  0.50     -5094.5933   2.0000                                                             
     2  1  1.50     -4572.0131   6.0000                                                             
     3  0  0.50     -1028.2813   2.0000                                                             
     3  1  1.50      -859.0250   6.0000                                                             
     3  2  2.50      -605.7620  10.0000                                                             
     4  0  0.50      -180.5540   2.0000                                                             
     4  1  1.50      -127.5306   6.0000                                                             
     4  2  2.50       -50.2720  10.0000                                                             
     5  0  0.50       -17.4058   2.0000                                                             
     5  1  0.50        -7.0851   5.0000                                                             
     5  2  1.50        -7.0750   0.0000                                                             
     4  3  2.50        -7.0750   0.0000                                                             
   Description                                                                                      
     l       E           TYP  RCUT    TYP  RCUT                                                     
     0    -17.4058016     23  2.300                                                                 
     0    -18.7663842     23  2.300                                                                 
     1     -7.0850686     23  2.300                                                                 
     1     -4.2150896     23  2.300                                                                 
     2     -7.0750295     23  2.300                                                                 
     3     -1.3605826     23  2.300                                                                 
  local pseudopotential read in
  partial core-charges read in
  partial kinetic energy density read in
  atomic valenz-charges read in
  non local Contribution for L=           0  read in
    real space projection operators read in
  non local Contribution for L=           0  read in
    real space projection operators read in
  non local Contribution for L=           1  read in
    real space projection operators read in
  non local Contribution for L=           1  read in
    real space projection operators read in
  non local Contribution for L=           2  read in
    real space projection operators read in
    PAW grid and wavefunctions read in
 
   number of l-projection  operators is LMAX  =           5
   number of lm-projection operators is LMMAX =          13
 
 -----------------------------------------------------------------------------
|                                                                             |
|               ----> ADVICE to this user running VASP <----                  |
|                                                                             |
|     You have a (more or less) 'large supercell' and for larger cells it     |
|     might be more efficient to use real-space projection operators.         |
|     Therefore, try LREAL= Auto in the INCAR file.                           |
|     Mind: For very accurate calculation, you might also keep the            |
|     reciprocal projection scheme (i.e. LREAL=.FALSE.).                      |
|                                                                             |
 -----------------------------------------------------------------------------

  PAW_PBE Ag 02Apr2005                  :
 energy of atom  1       EATOM=-1037.2675
 kinetic energy error for atom=    0.0686 (will be added to EATOM!!)
  PAW_PBE Bi 08Apr2002                  :
 energy of atom  2       EATOM= -150.8133
 kinetic energy error for atom=    0.0004 (will be added to EATOM!!)
  PAW_PBE I 08Apr2002                   :
 energy of atom  3       EATOM= -315.8678
 kinetic energy error for atom=    0.0044 (will be added to EATOM!!)
 
 
 POSCAR: Generation Seed Number
  positions in direct lattice
  velocities in cartesian coordinates
 exchange correlation table for  LEXCH =        8
   RHO(1)=    0.500       N(1)  =     2000
   RHO(2)=  100.500       N(2)  =     4000
 


--------------------------------------------------------------------------------------------------------


 ion  position               nearest neighbor table
   1  0.250  0.276  0.025-  25 2.96  29 2.96  19 2.96  41 2.97
   2  0.476  0.505  0.011-  39 2.94  19 2.98  31 3.06  29 3.13  40 3.18  23 3.57
   3  0.023  0.260  0.256-  35 2.94  41 2.98  26 3.07  33 3.15  25 3.15  45 3.56
   4  0.996  0.503  0.498-  28 3.02  35 3.02  36 3.07  26 3.08  24 3.23  20 3.31
   5  0.977  0.744  0.740-  28 2.94  48 2.99  36 3.07  34 3.14  27 3.15  44 3.55
   6  0.523  0.989  0.495-  32 2.94  22 2.99  37 3.07  38 3.13  30 3.17  18 3.56
   7  0.748  0.975  0.725-  38 2.95  34 2.96  22 2.97  48 2.97
   8  0.503  0.747  0.253-  32 3.02  39 3.02  37 3.08  31 3.08  47 3.23  43 3.31
   9  1.000  0.002  0.997-  25 3.07  34 3.07  17 3.14  21 3.14  27 3.18  33 3.19
  10  0.746  0.748  0.998-  31 3.03  48 3.05  23 3.13  21 3.14  27 3.19  47 3.21
  11  0.253  0.001  0.251-  37 3.03  41 3.06  18 3.12  17 3.14  33 3.20  43 3.20
  12  0.750  0.499  0.250-  39 3.11  35 3.11  47 3.12  24 3.12  23 3.14  45 3.14
  13  0.500  0.248  0.752-  29 3.07  38 3.07  42 3.13  46 3.14  40 3.18  30 3.18
  14  0.246  0.501  0.751-  36 3.03  19 3.06  44 3.12  42 3.14  40 3.19  20 3.20
  15  0.753  0.248  0.499-  26 3.03  22 3.05  45 3.13  46 3.14  30 3.19  24 3.20
  16  0.250  0.749  0.500-  43 3.11  20 3.11  28 3.11  32 3.11  18 3.14  44 3.14
  17  0.246  0.991  0.004-   9 3.14  11 3.14
  18  0.243  0.997  0.497-  11 3.12  16 3.14   6 3.56
  19  0.242  0.506  0.992-   1 2.96   2 2.98  14 3.06
  20  0.257  0.505  0.500-  16 3.11  14 3.20   4 3.31
  21  0.753  0.995  0.009-   9 3.14  10 3.14
  22  0.757  0.008  0.494-   7 2.97   6 2.99  15 3.05
  23  0.757  0.503  0.004-  10 3.13  12 3.14   2 3.57
  24  0.743  0.500  0.495-  12 3.12  15 3.20   4 3.23
  25  0.020  0.243  0.009-   1 2.96   9 3.07   3 3.15
  26  0.992  0.260  0.496-  15 3.03   3 3.07   4 3.08
  27  0.997  0.752  0.987-   5 3.15   9 3.18  10 3.19
  28  0.005  0.740  0.510-   5 2.94   4 3.02  16 3.11
  29  0.480  0.259  0.993-   1 2.96  13 3.07   2 3.13
  30  0.502  0.237  0.502-   6 3.17  13 3.18  15 3.19
  31  0.508  0.744  0.011-  10 3.03   2 3.06   8 3.08
  32  0.494  0.759  0.490-   6 2.94   8 3.02  16 3.11
  33  0.002  0.013  0.248-   3 3.15   9 3.19  11 3.20
  34  0.979  0.991  0.757-   7 2.96   9 3.07   5 3.14
  35  0.994  0.489  0.260-   3 2.94   4 3.02  12 3.11
  36  0.008  0.505  0.739-  14 3.03   5 3.07   4 3.07
  37  0.492  0.989  0.256-  11 3.03   6 3.07   8 3.08
  38  0.519  0.007  0.741-   7 2.95  13 3.07   6 3.13
  39  0.506  0.510  0.241-   2 2.94   8 3.02  12 3.11
  40  0.497  0.498  0.762-   2 3.18  13 3.18  14 3.19
  41  0.258  0.242  0.256-   1 2.97   3 2.98  11 3.06
  42  0.253  0.254  0.741-  13 3.13  14 3.14
  43  0.242  0.750  0.255-  16 3.11  11 3.20   8 3.31
  44  0.256  0.747  0.747-  14 3.12  16 3.14   5 3.55
  45  0.743  0.253  0.253-  15 3.13  12 3.14   3 3.56
  46  0.746  0.259  0.746-  13 3.14  15 3.14
  47  0.757  0.744  0.250-  12 3.12  10 3.21   8 3.23
  48  0.742  0.744  0.758-   7 2.97   5 2.99  10 3.05
 
 -----------------------------------------------------------------------------
|                                                                             |
|           W    W    AA    RRRRR   N    N  II  N    N   GGGG   !!!           |
|           W    W   A  A   R    R  NN   N  II  NN   N  G    G  !!!           |
|           W    W  A    A  R    R  N N  N  II  N N  N  G       !!!           |
|           W WW W  AAAAAA  RRRRR   N  N N  II  N  N N  G  GGG   !            |
|           WW  WW  A    A  R   R   N   NN  II  N   NN  G    G                |
|           W    W  A    A  R    R  N    N  II  N    N   GGGG   !!!           |
|                                                                             |
|     The determination of the symmetry of your systems shows a strong        |
|     dependence on the tolerance parameter SYMPREC. This is often the        |
|     result of "noise" in the structural parameters (lattice vectors         |
|     and/or ionic positions). Set NWRITE=3 for more details.                 |
|                                                                             |
 -----------------------------------------------------------------------------

  LATTYP: Found a triclinic cell.
 ALAT       =    17.9679767623
 B/A-ratio  =     0.7071447123
 C/A-ratio  =     1.0000851310
 COS(alpha) =     0.0000172557
 COS(beta)  =     0.5000073111
 COS(gamma) =     0.7070352550
  
  Lattice vectors:
  
 A1 = (  12.7055457965, -12.7050106191,  -0.0003371686)
 A2 = (  -0.0010175561, -12.7059596630,  -0.0011811236)
 A3 = (  12.7057944104,  -0.0001464064, -12.7069252146)


Analysis of symmetry for initial positions (statically):
=====================================================================
 Subroutine PRICEL returns:
 Original cell was already a primitive cell.
 

 Routine SETGRP: Setting up the symmetry group for a 
 triclinic supercell.


 Subroutine GETGRP returns: Found  1 space group operations
 (whereof  1 operations were pure point group operations)
 out of a pool of  2 trial point group operations.


The static configuration has the point symmetry C_1 .


Analysis of symmetry for dynamics (positions and initial velocities):
=====================================================================
 Subroutine PRICEL returns:
 Original cell was already a primitive cell.
 

 Routine SETGRP: Setting up the symmetry group for a 
 triclinic supercell.


 Subroutine GETGRP returns: Found  1 space group operations
 (whereof  1 operations were pure point group operations)
 out of a pool of  2 trial point group operations.


The dynamic configuration has the point symmetry C_1 .


 Subroutine INISYM returns: Found  1 space group operations
 (whereof  1 operations are pure point group operations),
 and found     1 'primitive' translations


----------------------------------------------------------------------------------------

                                     Primitive cell                                     

  volume of cell :    2051.6576

  direct lattice vectors                    reciprocal lattice vectors
    12.706563353  0.000949044  0.000843955     0.078699486 -0.000006302 -0.000004762
     0.001017556 12.705959663  0.001181124    -0.000005878  0.078703226 -0.000006784
     0.000768942  0.001095450 12.707769170    -0.000005226 -0.000007315  0.078692019

  length of vectors
    12.706563416 12.705959759 12.707769240     0.078699487  0.078703226  0.078692019

  position of ions in fractional coordinates (direct lattice)
     0.249567861  0.275790900  0.024741982
     0.475692218  0.505003584  0.011215138
     0.023323847  0.259535795  0.256159015
     0.996489025  0.502649022  0.497757626
     0.976708365  0.744117683  0.740006451
     0.523202365  0.988887394  0.495197887
     0.748391121  0.975460770  0.725111047
     0.503222052  0.747137858  0.253422233
     0.999721216  0.002314274  0.997485856
     0.746135750  0.748400509  0.998262982
     0.253494339  0.001122965  0.251478098
     0.749930297  0.499384543  0.250253395
     0.499566468  0.248101895  0.751954637
     0.246070982  0.501151474  0.751105440
     0.753289712  0.248240042  0.499086357
     0.249578258  0.749429571  0.499784308
     0.246230853  0.990525975  0.004416511
     0.243177867  0.996553371  0.497095508
     0.241810475  0.506486681  0.991671447
     0.257218178  0.504803539  0.499760110
     0.752966477  0.995336066  0.009397662
     0.757441190  0.008030545  0.493992201
     0.756778103  0.502557704  0.003606950
     0.742511545  0.500201186  0.495374284
     0.019777456  0.242719520  0.008703984
     0.991632562  0.260471618  0.495775304
     0.997237190  0.751876548  0.987228926
     0.005134650  0.739550387  0.510204624
     0.479735272  0.259447698  0.992566748
     0.502176331  0.237496804  0.501832795
     0.507779668  0.744018681  0.010751717
     0.494114571  0.759460371  0.490411049
     0.002245511  0.012811627  0.247933671
     0.978902019  0.990841697  0.757127443
     0.994352687  0.489058649  0.260433603
     0.007624394  0.504821237  0.739440620
     0.491875565  0.988988735  0.255653150
     0.518716667  0.007260947  0.740691780
     0.505556018  0.509511643  0.240554112
     0.497197197  0.498081906  0.762196296
     0.257500640  0.241603623  0.255758964
     0.253200300  0.253991061  0.741015490
     0.242478975  0.749556906  0.255266926
     0.256024634  0.746664490  0.746984977
     0.743139259  0.252608331  0.253308259
     0.746271331  0.258822148  0.745917396
     0.757026247  0.744472060  0.250307626
     0.742022744  0.744077081  0.758144906

  ion indices of the primitive-cell ions
   primitive index   ion index
                 1           1
                 2           2
                 3           3
                 4           4
                 5           5
                 6           6
                 7           7
                 8           8
                 9           9
                10          10
                11          11
                12          12
                13          13
                14          14
                15          15
                16          16
                17          17
                18          18
                19          19
                20          20
                21          21
                22          22
                23          23
                24          24
                25          25
                26          26
                27          27
                28          28
                29          29
                30          30
                31          31
                32          32
                33          33
                34          34
                35          35
                36          36
                37          37
                38          38
                39          39
                40          40
                41          41
                42          42
                43          43
                44          44
                45          45
                46          46
                47          47
                48          48

----------------------------------------------------------------------------------------

 
 
 KPOINTS: agbii                                   

Automatic generation of k-mesh.
Space group operators:
 irot       det(A)        alpha          n_x          n_y          n_z        tau_x        tau_y        tau_z
    1     1.000000     0.000000     1.000000     0.000000     0.000000     0.000000     0.000000     0.000000
 TETIRR: Found    192 inequivalent tetrahedra from      384
 
 Subroutine IBZKPT returns following result:
 ===========================================
 
 Found     36 irreducible k-points:
 
 Following reciprocal coordinates:
            Coordinates               Weight
  0.000000  0.000000  0.000000      1.000000
  0.250000  0.000000  0.000000      2.000000
  0.500000 -0.000000 -0.000000      1.000000
 -0.000000  0.250000  0.000000      2.000000
  0.250000  0.250000 -0.000000      2.000000
  0.500000  0.250000  0.000000      2.000000
 -0.250000  0.250000 -0.000000      2.000000
 -0.000000  0.500000 -0.000000      1.000000
  0.250000  0.500000  0.000000      2.000000
  0.500000  0.500000 -0.000000      1.000000
 -0.000000 -0.000000  0.250000      2.000000
  0.250000 -0.000000  0.250000      2.000000
  0.500000 -0.000000  0.250000      2.000000
 -0.250000 -0.000000  0.250000      2.000000
 -0.000000  0.250000  0.250000      2.000000
  0.250000  0.250000  0.250000      2.000000
  0.500000  0.250000  0.250000      2.000000
 -0.250000  0.250000  0.250000      2.000000
 -0.000000  0.500000  0.250000      2.000000
  0.250000  0.500000  0.250000      2.000000
  0.500000  0.500000  0.250000      2.000000
 -0.250000  0.500000  0.250000      2.000000
  0.000000 -0.250000  0.250000      2.000000
  0.250000 -0.250000  0.250000      2.000000
  0.500000 -0.250000  0.250000      2.000000
 -0.250000 -0.250000  0.250000      2.000000
 -0.000000 -0.000000  0.500000      1.000000
  0.250000  0.000000  0.500000      2.000000
  0.500000 -0.000000  0.500000      1.000000
 -0.000000  0.250000  0.500000      2.000000
  0.250000  0.250000  0.500000      2.000000
  0.500000  0.250000  0.500000      2.000000
 -0.250000  0.250000  0.500000      2.000000
 -0.000000  0.500000  0.500000      1.000000
  0.250000  0.500000  0.500000      2.000000
  0.500000  0.500000  0.500000      1.000000
 
 Following cartesian coordinates:
            Coordinates               Weight
  0.000000  0.000000  0.000000      1.000000
  0.019675 -0.000002 -0.000001      2.000000
  0.039350 -0.000003 -0.000002      1.000000
 -0.000001  0.019676 -0.000002      2.000000
  0.019673  0.019674 -0.000003      2.000000
  0.039348  0.019673 -0.000004      2.000000
 -0.019676  0.019677 -0.000001      2.000000
 -0.000003  0.039352 -0.000003      1.000000
  0.019672  0.039350 -0.000005      2.000000
  0.039347  0.039348 -0.000006      1.000000
 -0.000001 -0.000002  0.019673      2.000000
  0.019674 -0.000003  0.019672      2.000000
  0.039348 -0.000005  0.019671      2.000000
 -0.019676 -0.000000  0.019674      2.000000
 -0.000003  0.019674  0.019671      2.000000
  0.019672  0.019672  0.019670      2.000000
  0.039347  0.019671  0.019669      2.000000
 -0.019678  0.019676  0.019672      2.000000
 -0.000004  0.039350  0.019670      2.000000
  0.019671  0.039348  0.019668      2.000000
  0.039345  0.039347  0.019667      2.000000
 -0.019679  0.039351  0.019671      2.000000
  0.000000 -0.019678  0.019675      2.000000
  0.019675 -0.019679  0.019674      2.000000
  0.039350 -0.019681  0.019672      2.000000
 -0.019675 -0.019676  0.019676      2.000000
 -0.000003 -0.000004  0.039346      1.000000
  0.019672 -0.000005  0.039345      2.000000
  0.039347 -0.000007  0.039344      1.000000
 -0.000004  0.019672  0.039344      2.000000
  0.019671  0.019671  0.039343      2.000000
  0.039346  0.019669  0.039342      2.000000
 -0.019679  0.019674  0.039346      2.000000
 -0.000006  0.039348  0.039343      1.000000
  0.019669  0.039346  0.039341      2.000000
  0.039344  0.039345  0.039340      1.000000
 


--------------------------------------------------------------------------------------------------------




 Dimension of arrays:
   k-points           NKPTS =     36   k-points in BZ     NKDIM =     36   number of bands    NBANDS=    211
   number of dos      NEDOS =   3000   number of ions     NIONS =     48
   non local maximal  LDIM  =      6   non local SUM 2l+1 LMDIM =     18
   total plane-waves  NPLWV = 125000
   max r-space proj   IRMAX =      1   max aug-charges    IRDMAX=   6003
   dimension x,y,z NGX =    50 NGY =   50 NGZ =   50
   dimension x,y,z NGXF=   100 NGYF=  100 NGZF=  100
   support grid    NGXF=   100 NGYF=  100 NGZF=  100
   ions per type =               8   8  32
   NGX,Y,Z   is equivalent  to a cutoff of   6.54,  6.54,  6.54 a.u.
   NGXF,Y,Z  is equivalent  to a cutoff of  13.08, 13.08, 13.08 a.u.

 SYSTEM =  unknown system                          
 POSCAR =  Generation Seed Number                  

 Startparameter for this run:
   NWRITE =      2    write-flag & timer
   PREC   = normal    normal or accurate (medium, high low for compatibility)
   ISTART =      1    job   : 0-new  1-cont  2-samecut
   ICHARG =      1    charge: 1-file 2-atom 10-const
   ISPIN  =      1    spin polarized calculation?
   LNONCOLLINEAR =      F non collinear calculations
   LSORBIT =      F    spin-orbit coupling
   INIWAV =      1    electr: 0-lowe 1-rand  2-diag
   LASPH  =      F    aspherical Exc in radial PAW
   METAGGA=      F    non-selfconsistent MetaGGA calc.

 Electronic Relaxation 1
   ENCUT  =  250.0 eV  18.37 Ry    4.29 a.u.  16.38 16.38 16.38*2*pi/ulx,y,z
   ENINI  =  250.0     initial cutoff
   ENAUG  =  412.5 eV  augmentation charge cutoff
   NELM   =     60;   NELMIN=  2; NELMDL=  0     # of ELM steps 
   EDIFF  = 0.1E-05   stopping-criterion for ELM
   LREAL  =      F    real-space projection
   NLSPLINE    = F    spline interpolate recip. space projectors
   LCOMPAT=      F    compatible to vasp.4.4
   GGA_COMPAT  = T    GGA compatible to vasp.4.4-vasp.4.6
   LMAXPAW     = -100 max onsite density
   LMAXMIX     =    4 max onsite mixed and CHGCAR
   VOSKOWN=      0    Vosko Wilk Nusair interpolation
   ROPT   =    0.00000   0.00000   0.00000
 Ionic relaxation
   EDIFFG = -.1E-01   stopping-criterion for IOM
   NSW    =      0    number of steps for IOM
   NBLOCK =      1;   KBLOCK =      1    inner block; outer block 
   IBRION =     -1    ionic relax: 0-MD 1-quasi-New 2-CG
   NFREE  =      0    steps in history (QN), initial steepest desc. (CG)
   ISIF   =     -1    stress and relaxation
   IWAVPR =     10    prediction:  0-non 1-charg 2-wave 3-comb
   ISYM   =      2    0-nonsym 1-usesym 2-fastsym
   LCORR  =      T    Harris-Foulkes like correction to forces

   POTIM  = 0.5000    time-step for ionic-motion
   TEIN   =    0.0    initial temperature
   TEBEG  =    0.0;   TEEND  =   0.0 temperature during run
   SMASS  =  -3.00    Nose mass-parameter (am)
   estimated Nose-frequenzy (Omega)   =  0.10E-29 period in steps = 0.13E+47 mass=  -0.369E-26a.u.
   SCALEE = 1.0000    scale energy and forces
   NPACO  =    256;   APACO  = 16.0  distance and # of slots for P.C.
   PSTRESS=    0.0 pullay stress

  Mass of Ions in am
   POMASS = 107.87208.98126.90
  Ionic Valenz
   ZVAL   =  11.00  5.00  7.00
  Atomic Wigner-Seitz radii
   RWIGS  =  -1.00 -1.00 -1.00
  virtual crystal weights 
   VCA    =   1.00  1.00  1.00
   NELECT =     352.0000    total number of electrons
   NUPDOWN=      -1.0000    fix difference up-down

 DOS related values:
   EMIN   =  10.00;   EMAX   =-10.00  energy-range for DOS
   EFERMI =   0.00
   ISMEAR =    -5;   SIGMA  =   0.20  broadening in eV -4-tet -1-fermi 0-gaus

 Electronic relaxation 2 (details)
   IALGO  =     38    algorithm
   LDIAG  =      T    sub-space diagonalisation (order eigenvalues)
   LSUBROT=      F    optimize rotation matrix (better conditioning)
   TURBO    =      0    0=normal 1=particle mesh
   IRESTART =      0    0=no restart 2=restart with 2 vectors
   NREBOOT  =      0    no. of reboots
   NMIN     =      0    reboot dimension
   EREF     =   0.00    reference energy to select bands
   IMIX   =      4    mixing-type and parameters
     AMIX     =   0.40;   BMIX     =  1.00
     AMIX_MAG =   1.60;   BMIX_MAG =  1.00
     AMIN     =   0.10
     WC   =   100.;   INIMIX=   1;  MIXPRE=   1;  MAXMIX= -45

 Intra band minimization:
   WEIMIN = 0.0000     energy-eigenvalue tresh-hold
   EBREAK =  0.12E-08  absolut break condition
   DEPER  =   0.30     relativ break condition  

   TIME   =   0.40     timestep for ELM

  volume/ion in A,a.u.               =      42.74       288.44
  Fermi-wavevector in a.u.,A,eV,Ry     =   0.909677  1.719041 11.258998  0.827513
  Thomas-Fermi vector in A             =   2.033750
 
 Write flags
   LWAVE        =      T    write WAVECAR
   LDOWNSAMPLE  =      F    k-point downsampling of WAVECAR
   LCHARG       =      T    write CHGCAR
   LVTOT        =      F    write LOCPOT, total local potential
   LVHAR        =      F    write LOCPOT, Hartree potential only
   LELF         =      F    write electronic localiz. function (ELF)
   LORBIT       =     10    0 simple, 1 ext, 2 COOP (PROOUT), +10 PAW based schemes


 Dipole corrections
   LMONO  =      F    monopole corrections only (constant potential shift)
   LDIPOL =      F    correct potential (dipole corrections)
   IDIPOL =      0    1-x, 2-y, 3-z, 4-all directions 
   EPSILON=  1.0000000 bulk dielectric constant

 Exchange correlation treatment:
   GGA     =    --    GGA type
   LEXCH   =     8    internal setting for exchange type
   VOSKOWN=      0    Vosko Wilk Nusair interpolation
   LHFCALC =     F    Hartree Fock is set to
   LHFONE  =     F    Hartree Fock one center treatment
   AEXX    =    0.0000 exact exchange contribution

 Linear response parameters
   LEPSILON=     F    determine dielectric tensor
   LRPA    =     F    only Hartree local field effects (RPA)
   LNABLA  =     F    use nabla operator in PAW spheres
   LVEL    =     F    velocity operator in full k-point grid
   LINTERFAST=   F  fast interpolation
   KINTER  =     0    interpolate to denser k-point grid
   CSHIFT  =0.1000    complex shift for real part using Kramers Kronig
   OMEGAMAX=  -1.0    maximum frequency
   DEG_THRESHOLD= 0.2000000E-02 threshold for treating states as degnerate
   RTIME   =   -0.100 relaxation time in fs
  (WPLASMAI=    0.000 imaginary part of plasma frequency in eV, 0.658/RTIME)
   DFIELD  = 0.0000000 0.0000000 0.0000000 field for delta impulse in time
 
 Orbital magnetization related:
   ORBITALMAG=     F  switch on orbital magnetization
   LCHIMAG   =     F  perturbation theory with respect to B field
   DQ        =  0.001000  dq finite difference perturbation B field
   LLRAUG    =     F  two centre corrections for induced B field



--------------------------------------------------------------------------------------------------------


 Static calculation
 charge density and potential will be updated during run
 non-spin polarized calculation
 Variant of blocked Davidson
 Davidson routine will perform the subspace rotation
 perform sub-space diagonalisation
    after iterative eigenvector-optimisation
 modified Broyden-mixing scheme, WC =      100.0
 initial mixing is a Kerker type mixing with AMIX =  0.4000 and BMIX =      1.0000
 Hartree-type preconditioning will be used
 using additional bands           35
 reciprocal scheme for non local part
 use partial core corrections
 calculate Harris-corrections to forces 
   (improved forces if not selfconsistent)
 use gradient corrections 
 use of overlap-Matrix (Vanderbilt PP)
 Fermi weights with tetrahedron method with Bloechl corrections


--------------------------------------------------------------------------------------------------------


  energy-cutoff  :      250.00
  volume of cell :     2051.66
      direct lattice vectors                 reciprocal lattice vectors
    12.706563353  0.000949044  0.000843955     0.078699486 -0.000006302 -0.000004762
     0.001017556 12.705959663  0.001181124    -0.000005878  0.078703226 -0.000006784
     0.000768942  0.001095450 12.707769170    -0.000005226 -0.000007315  0.078692019

  length of vectors
    12.706563416 12.705959759 12.707769240     0.078699487  0.078703226  0.078692019


 
 old parameters found on file WAVECAR:
  energy-cutoff  :      250.00
  volume of cell :     2051.66
      direct lattice vectors                 reciprocal lattice vectors
    12.706563353  0.000949044  0.000843955     0.078699486 -0.000006302 -0.000004762
     0.001017556 12.705959663  0.001181124    -0.000005878  0.078703226 -0.000006784
     0.000768942  0.001095450 12.707769170    -0.000005226 -0.000007315  0.078692019

  length of vectors

 
 k-points in units of 2pi/SCALE and weight: agbii                                   
   0.00000000  0.00000000  0.00000000       0.016
   0.01967487 -0.00000158 -0.00000119       0.031
   0.03934974 -0.00000315 -0.00000238       0.016
  -0.00000147  0.01967581 -0.00000170       0.031
   0.01967340  0.01967423 -0.00000289       0.031
   0.03934827  0.01967266 -0.00000408       0.031
  -0.01967634  0.01967738 -0.00000051       0.031
  -0.00000294  0.03935161 -0.00000339       0.016
   0.01967193  0.03935004 -0.00000458       0.031
   0.03934680  0.03934846 -0.00000577       0.016
  -0.00000131 -0.00000183  0.01967300       0.031
   0.01967357 -0.00000340  0.01967181       0.031
   0.03934844 -0.00000498  0.01967062       0.031
  -0.01967618 -0.00000025  0.01967420       0.031
  -0.00000278  0.01967398  0.01967131       0.031
   0.01967210  0.01967240  0.01967012       0.031
   0.03934697  0.01967083  0.01966893       0.031
  -0.01967765  0.01967555  0.01967250       0.031
  -0.00000425  0.03934978  0.01966961       0.031
   0.01967063  0.03934821  0.01966842       0.031
   0.03934550  0.03934663  0.01966723       0.031
  -0.01967912  0.03935136  0.01967080       0.031
   0.00000016 -0.01967764  0.01967470       0.031
   0.01967503 -0.01967921  0.01967351       0.031
   0.03934991 -0.01968079  0.01967232       0.031
  -0.01967471 -0.01967606  0.01967589       0.031
  -0.00000261 -0.00000366  0.03934601       0.016
   0.01967226 -0.00000523  0.03934482       0.031
   0.03934713 -0.00000681  0.03934363       0.016
  -0.00000408  0.01967215  0.03934431       0.031
   0.01967079  0.01967057  0.03934312       0.031
   0.03934566  0.01966900  0.03934193       0.031
  -0.01967895  0.01967372  0.03934550       0.031
  -0.00000555  0.03934796  0.03934262       0.016
   0.01966932  0.03934638  0.03934143       0.031
   0.03934419  0.03934480  0.03934024       0.016
 
 k-points in reciprocal lattice and weights: agbii                                   
   0.00000000  0.00000000  0.00000000       0.016
   0.25000000  0.00000000  0.00000000       0.031
   0.50000000 -0.00000000 -0.00000000       0.016
  -0.00000000  0.25000000  0.00000000       0.031
   0.25000000  0.25000000 -0.00000000       0.031
   0.50000000  0.25000000  0.00000000       0.031
  -0.25000000  0.25000000 -0.00000000       0.031
  -0.00000000  0.50000000 -0.00000000       0.016
   0.25000000  0.50000000  0.00000000       0.031
   0.50000000  0.50000000 -0.00000000       0.016
  -0.00000000 -0.00000000  0.25000000       0.031
   0.25000000 -0.00000000  0.25000000       0.031
   0.50000000 -0.00000000  0.25000000       0.031
  -0.25000000 -0.00000000  0.25000000       0.031
  -0.00000000  0.25000000  0.25000000       0.031
   0.25000000  0.25000000  0.25000000       0.031
   0.50000000  0.25000000  0.25000000       0.031
  -0.25000000  0.25000000  0.25000000       0.031
  -0.00000000  0.50000000  0.25000000       0.031
   0.25000000  0.50000000  0.25000000       0.031
   0.50000000  0.50000000  0.25000000       0.031
  -0.25000000  0.50000000  0.25000000       0.031
   0.00000000 -0.25000000  0.25000000       0.031
   0.25000000 -0.25000000  0.25000000       0.031
   0.50000000 -0.25000000  0.25000000       0.031
  -0.25000000 -0.25000000  0.25000000       0.031
  -0.00000000 -0.00000000  0.50000000       0.016
   0.25000000  0.00000000  0.50000000       0.031
   0.50000000 -0.00000000  0.50000000       0.016
  -0.00000000  0.25000000  0.50000000       0.031
   0.25000000  0.25000000  0.50000000       0.031
   0.50000000  0.25000000  0.50000000       0.031
  -0.25000000  0.25000000  0.50000000       0.031
  -0.00000000  0.50000000  0.50000000       0.016
   0.25000000  0.50000000  0.50000000       0.031
   0.50000000  0.50000000  0.50000000       0.016
 
 position of ions in fractional coordinates (direct lattice) 
   0.24956786  0.27579090  0.02474198
   0.47569222  0.50500358  0.01121514
   0.02332385  0.25953579  0.25615901
   0.99648902  0.50264902  0.49775763
   0.97670836  0.74411768  0.74000645
   0.52320236  0.98888739  0.49519789
   0.74839112  0.97546077  0.72511105
   0.50322205  0.74713786  0.25342223
   0.99972122  0.00231427  0.99748586
   0.74613575  0.74840051  0.99826298
   0.25349434  0.00112297  0.25147810
   0.74993030  0.49938454  0.25025340
   0.49956647  0.24810190  0.75195464
   0.24607098  0.50115147  0.75110544
   0.75328971  0.24824004  0.49908636
   0.24957826  0.74942957  0.49978431
   0.24623085  0.99052598  0.00441651
   0.24317787  0.99655337  0.49709551
   0.24181048  0.50648668  0.99167145
   0.25721818  0.50480354  0.49976011
   0.75296648  0.99533607  0.00939766
   0.75744119  0.00803054  0.49399220
   0.75677810  0.50255770  0.00360695
   0.74251155  0.50020119  0.49537428
   0.01977746  0.24271952  0.00870398
   0.99163256  0.26047162  0.49577530
   0.99723719  0.75187655  0.98722893
   0.00513465  0.73955039  0.51020462
   0.47973527  0.25944770  0.99256675
   0.50217633  0.23749680  0.50183280
   0.50777967  0.74401868  0.01075172
   0.49411457  0.75946037  0.49041105
   0.00224551  0.01281163  0.24793367
   0.97890202  0.99084170  0.75712744
   0.99435269  0.48905865  0.26043360
   0.00762439  0.50482124  0.73944062
   0.49187556  0.98898874  0.25565315
   0.51871667  0.00726095  0.74069178
   0.50555602  0.50951164  0.24055411
   0.49719720  0.49808191  0.76219630
   0.25750064  0.24160362  0.25575896
   0.25320030  0.25399106  0.74101549
   0.24247898  0.74955691  0.25526693
   0.25602463  0.74666449  0.74698498
   0.74313926  0.25260833  0.25330826
   0.74627133  0.25882215  0.74591740
   0.75702625  0.74447206  0.25030763
   0.74202274  0.74407708  0.75814491
 
 position of ions in cartesian coordinates  (Angst):
   3.17144949  3.50445201  0.31495176
   6.04493579  6.41701891  0.14351732
   0.29682700  3.29795409  3.25553586
  12.66284514  6.38812917  6.32682369
  12.41193292  9.45646684  9.40553436
   6.64949102 12.56580234  6.29446999
   9.51102935 12.39566978  9.21632756
   6.39517801  9.49385868  3.22173840
  12.70379033  0.03144655 12.67666646
   9.48235032  9.51094834 12.68720921
   3.22123640  0.01478441  3.19594089
   9.52973741  6.34614572  3.18138513
   6.34860364  3.15367051  9.55638061
   3.12780403  6.36866674  9.54567415
   9.57235982  3.15538959  6.34320316
   3.17242884  9.52300625  6.35223942
   3.12975925 12.58582161  0.05750174
   3.09135126 12.66294226  6.31835726
   3.07385804  6.43671516 12.60273414
   3.26925702  6.41480498  6.35164943
   9.56863627 12.64742480  0.12123440
   9.62486249  0.10329577  6.27818759
   9.61656307  6.38620008  0.04706856
   9.43565989  6.35678343  6.29631950
   0.25155717  3.08401274  0.11091159
  12.60088824  3.31102607  6.30134266
  12.67298173  9.55534097 12.54720699
   0.06638860  9.39726116  6.48444043
   6.09681386  3.29807459 12.61402043
   6.38156291  3.01865113  6.37787965
   6.45289986  9.45396503  0.13793766
   6.27964799  9.65067899  6.23334443
   0.02873641  0.16305774  3.15070089
  12.44007095 12.59135305  9.62339724
  12.63550332  6.21518844  3.31094694
   0.09796212  6.41505553  9.39724341
   6.25125096 12.56679784  3.25036446
   6.59168312  0.09356098  9.41298651
   6.42458301  6.47457769  3.05793459
   6.31876059  6.32991542  9.68682250
   3.27239070  3.07033044  3.25062856
   3.21813390  3.22825222  9.41716749
   3.08203346  9.52434957  3.24496313
   3.25452739  9.48815015  9.49361064
   9.44319789  3.21061402  3.21990842
   9.48338088  3.29010913  9.47988161
   9.62015199  9.46022461  3.18236974
   9.42989911  9.45574809  9.63583555
 


--------------------------------------------------------------------------------------------------------


 k-point   1 :   0.0000 0.0000 0.0000  plane waves:   18349
 k-point   2 :   0.2500 0.0000 0.0000  plane waves:   18465
 k-point   3 :   0.5000-0.0000-0.0000  plane waves:   18464
 k-point   4 :  -0.0000 0.2500 0.0000  plane waves:   18465
 k-point   5 :   0.2500 0.2500-0.0000  plane waves:   18429
 k-point   6 :   0.5000 0.2500 0.0000  plane waves:   18414
 k-point   7 :  -0.2500 0.2500-0.0000  plane waves:   18429
 k-point   8 :  -0.0000 0.5000-0.0000  plane waves:   18464
 k-point   9 :   0.2500 0.5000 0.0000  plane waves:   18415
 k-point  10 :   0.5000 0.5000-0.0000  plane waves:   18400
 k-point  11 :  -0.0000-0.0000 0.2500  plane waves:   18465
 k-point  12 :   0.2500-0.0000 0.2500  plane waves:   18429
 k-point  13 :   0.5000-0.0000 0.2500  plane waves:   18409
 k-point  14 :  -0.2500-0.0000 0.2500  plane waves:   18429
 k-point  15 :  -0.0000 0.2500 0.2500  plane waves:   18429
 k-point  16 :   0.2500 0.2500 0.2500  plane waves:   18430
 k-point  17 :   0.5000 0.2500 0.2500  plane waves:   18416
 k-point  18 :  -0.2500 0.2500 0.2500  plane waves:   18430
 k-point  19 :  -0.0000 0.5000 0.2500  plane waves:   18410
 k-point  20 :   0.2500 0.5000 0.2500  plane waves:   18415
 k-point  21 :   0.5000 0.5000 0.2500  plane waves:   18432
 k-point  22 :  -0.2500 0.5000 0.2500  plane waves:   18414
 k-point  23 :   0.0000-0.2500 0.2500  plane waves:   18429
 k-point  24 :   0.2500-0.2500 0.2500  plane waves:   18430
 k-point  25 :   0.5000-0.2500 0.2500  plane waves:   18414
 k-point  26 :  -0.2500-0.2500 0.2500  plane waves:   18430
 k-point  27 :  -0.0000-0.0000 0.5000  plane waves:   18464
 k-point  28 :   0.2500 0.0000 0.5000  plane waves:   18411
 k-point  29 :   0.5000-0.0000 0.5000  plane waves:   18400
 k-point  30 :  -0.0000 0.2500 0.5000  plane waves:   18413
 k-point  31 :   0.2500 0.2500 0.5000  plane waves:   18414
 k-point  32 :   0.5000 0.2500 0.5000  plane waves:   18432
 k-point  33 :  -0.2500 0.2500 0.5000  plane waves:   18415
 k-point  34 :  -0.0000 0.5000 0.5000  plane waves:   18400
 k-point  35 :   0.2500 0.5000 0.5000  plane waves:   18432
 k-point  36 :   0.5000 0.5000 0.5000  plane waves:   18336

 maximum and minimum number of plane-waves per node :     18465    18336

 maximum number of plane-waves:     18465
 maximum index in each direction: 
   IXMAX=   16   IYMAX=   16   IZMAX=   16
   IXMIN=  -16   IYMIN=  -16   IZMIN=  -16


 serial   3D FFT for wavefunctions
 parallel 3D FFT for charge:
    minimum data exchange during FFTs selected (reduces bandwidth)


 total amount of memory used by VASP MPI-rank0  2761676. kBytes
=======================================================================

   base      :      30000. kBytes
   nonl-proj :     301348. kBytes
   fftplans  :      34720. kBytes
   grid      :      70000. kBytes
   one-center:        746. kBytes
   wavefun   :    2324862. kBytes
 
     INWAV:  cpu time    4.5669: real time    4.6779
 Broyden mixing: mesh for mixing (old mesh)
   NGX = 33   NGY = 33   NGZ = 33
  (NGX  =100   NGY  =100   NGZ  =100)
  gives a total of  35937 points

 initial charge density was supplied:
 number of electron     352.0000483 magnetization 
 keeping initial charge density in first step


--------------------------------------------------------------------------------------------------------


 Maximum index for augmentation-charges         5633 (set IRDMAX)


--------------------------------------------------------------------------------------------------------


 First call to EWALD:  gamma=   0.139
 Maximum number of real-space cells 3x 3x 3
 Maximum number of reciprocal cells 3x 3x 3

    FEWALD:  cpu time    0.0026: real time    0.0026


--------------------------------------- Iteration      1(   1)  ---------------------------------------


    POTLOK:  cpu time    0.5815: real time    0.5970
    SETDIJ:  cpu time    0.0276: real time    0.0276
     EDDAV:  cpu time   50.5981: real time   50.6004
 BZINTS: Fermi energy:    2.097388;  352.000000 electrons
         Band energy:-0.746071E+03;  BLOECHL correction:   -0.000000
       DOS:  cpu time    0.0564: real time    0.0564
    CHARGE:  cpu time    1.2207: real time    1.2207
    MIXING:  cpu time    0.0251: real time    0.0251
    --------------------------------------------
      LOOP:  cpu time   52.5095: real time   52.5274

 eigenvalue-minimisations  :  8944
 total energy-change (2. order) :-0.1199671E+03  (-0.1833552E-06)
 number of electron     352.0000483 magnetization 
 augmentation part      -23.1253574 magnetization 

 Broyden mixing:
  rms(total) = 0.61933E-03    rms(broyden)= 0.61931E-03
  rms(prec ) = 0.72995E-03
  weight for this iteration     100.00

 Free energy of the ion-electron system (eV)
  ---------------------------------------------------
  alpha Z        PSCENC =       226.98638441
  Ewald energy   TEWEN  =    -13913.47240219
  -Hartree energ DENC   =     -6049.34984605
  -exchange      EXHF   =         0.00000000
  -V(xc)+E(xc)   XCENC  =     -1392.24322912
  PAW double counting   =     22654.37433527   -20511.91491548
  entropy T*S    EENTRO =         0.00000000
  eigenvalues    EBANDS =      -746.07114715
  atomic energy  EATOM  =     19611.72375700
  Solvation  Ediel_sol  =         0.00000000
  ---------------------------------------------------
  free energy    TOTEN  =      -119.96706332 eV

  energy without entropy =     -119.96706332  energy(sigma->0) =     -119.96706332


--------------------------------------------------------------------------------------------------------




--------------------------------------- Iteration      1(   2)  ---------------------------------------


    POTLOK:  cpu time    0.5633: real time    0.5633
    SETDIJ:  cpu time    0.0527: real time    0.0527
     EDDAV:  cpu time   47.9793: real time   47.9812
 BZINTS: Fermi energy:    2.097497;  352.000000 electrons
         Band energy:-0.746069E+03;  BLOECHL correction:    0.000000
       DOS:  cpu time    0.0539: real time    0.0539
    --------------------------------------------
      LOOP:  cpu time   48.6491: real time   48.6511

 eigenvalue-minimisations  :  8208
 total energy-change (2. order) :-0.9506039E-07  (-0.8850019E-07)
 number of electron     352.0000483 magnetization 
 augmentation part      -23.1253574 magnetization 

 Free energy of the ion-electron system (eV)
  ---------------------------------------------------
  alpha Z        PSCENC =       226.98638441
  Ewald energy   TEWEN  =    -13913.47240219
  -Hartree energ DENC   =     -6049.35180950
  -exchange      EXHF   =         0.00000000
  -V(xc)+E(xc)   XCENC  =     -1392.24271022
  PAW double counting   =     22653.94393582   -20511.48529357
  entropy T*S    EENTRO =         0.00000000
  eigenvalues    EBANDS =      -746.06892516
  atomic energy  EATOM  =     19611.72375700
  Solvation  Ediel_sol  =         0.00000000
  ---------------------------------------------------
  free energy    TOTEN  =      -119.96706341 eV

  energy without entropy =     -119.96706341  energy(sigma->0) =     -119.96706341


--------------------------------------------------------------------------------------------------------




 average (electrostatic) potential at core
  the test charge radii are     1.1249  1.4024  1.1875
  (the norm of the test charge is              1.0000)
       1 -75.1481       2 -75.0267       3 -75.0227       4 -74.9664       5 -75.0221
       6 -75.0259       7 -75.1508       8 -74.9670       9 -65.4363      10 -65.4956
      11 -65.4905      12 -65.4716      13 -65.4369      14 -65.4910      15 -65.4954
      16 -65.4627      17 -93.2846      18 -93.2982      19 -93.1903      20 -93.2708
      21 -93.2890      22 -93.1986      23 -93.3052      24 -93.2921      25 -93.0456
      26 -93.0388      27 -93.1505      28 -92.9706      29 -93.0537      30 -93.1485
      31 -93.0418      32 -92.9709      33 -93.1507      34 -93.0467      35 -92.9720
      36 -93.0420      37 -93.0431      38 -93.0576      39 -92.9715      40 -93.1476
      41 -93.1858      42 -93.2911      43 -93.2698      44 -93.3013      45 -93.3082
      46 -93.2943      47 -93.2920      48 -93.1942
 
 
 
 E-fermi :   2.0975     XC(G=0):  -7.8232     alpha+bet : -7.8016


 k-point     1 :       0.0000    0.0000    0.0000
  band No.  band energies     occupation 
      1     -10.8137      2.00000
      2     -10.6826      2.00000
      3     -10.6365      2.00000
      4     -10.5016      2.00000
      5     -10.4500      2.00000
      6     -10.2230      2.00000
      7     -10.1909      2.00000
      8     -10.0095      2.00000
      9      -9.8587      2.00000
     10      -9.8501      2.00000
     11      -9.8324      2.00000
     12      -9.8193      2.00000
     13      -9.8034      2.00000
     14      -9.7757      2.00000
     15      -9.7734      2.00000
     16      -9.7053      2.00000
     17      -9.6950      2.00000
     18      -9.6762      2.00000
     19      -9.6741      2.00000
     20      -9.6737      2.00000
     21      -9.6482      2.00000
     22      -9.6237      2.00000
     23      -9.6176      2.00000
     24      -9.5925      2.00000
     25      -9.5799      2.00000
     26      -9.5702      2.00000
     27      -9.5536      2.00000
     28      -9.5281      2.00000
     29      -9.5197      2.00000
     30      -9.5163      2.00000
     31      -9.5086      2.00000
     32      -9.4763      2.00000
     33      -8.1841      2.00000
     34      -8.0860      2.00000
     35      -8.0735      2.00000
     36      -7.8446      2.00000
     37      -7.8193      2.00000
     38      -7.6119      2.00000
     39      -7.5938      2.00000
     40      -7.5931      2.00000
     41      -1.7913      2.00000
     42      -1.7320      2.00000
     43      -1.6842      2.00000
     44      -1.6751      2.00000
     45      -1.6236      2.00000
     46      -1.5559      2.00000
     47      -1.4954      2.00000
     48      -1.4421      2.00000
     49      -1.4372      2.00000
     50      -1.4030      2.00000
     51      -1.4000      2.00000
     52      -1.3603      2.00000
     53      -1.3259      2.00000
     54      -1.2895      2.00000
     55      -1.2828      2.00000
     56      -1.2464      2.00000
     57      -1.1994      2.00000
     58      -1.1959      2.00000
     59      -1.1236      2.00000
     60      -1.0756      2.00000
     61      -1.0690      2.00000
     62      -1.0300      2.00000
     63      -0.9903      2.00000
     64      -0.9864      2.00000
     65      -0.9792      2.00000
     66      -0.9671      2.00000
     67      -0.9511      2.00000
     68      -0.9496      2.00000
     69      -0.9277      2.00000
     70      -0.8904      2.00000
     71      -0.8854      2.00000
     72      -0.8830      2.00000
     73      -0.8477      2.00000
     74      -0.8190      2.00000
     75      -0.8150      2.00000
     76      -0.7838      2.00000
     77      -0.7800      2.00000
     78      -0.7706      2.00000
     79      -0.7523      2.00000
     80      -0.7046      2.00000
     81      -0.6718      2.00000
     82      -0.6620      2.00000
     83      -0.6256      2.00000
     84      -0.6102      2.00000
     85      -0.6003      2.00000
     86      -0.5830      2.00000
     87      -0.5481      2.00000
     88      -0.5193      2.00000
     89      -0.5086      2.00000
     90      -0.4737      2.00000
     91      -0.4466      2.00000
     92      -0.4348      2.00000
     93      -0.4224      2.00000
     94      -0.3796      2.00000
     95      -0.3659      2.00000
     96      -0.3377      2.00000
     97      -0.3185      2.00000
     98      -0.3155      2.00000
     99      -0.2895      2.00000
    100      -0.2837      2.00000
    101      -0.2502      2.00000
    102      -0.2324      2.00000
    103      -0.2275      2.00000
    104      -0.1947      2.00000
    105      -0.1730      2.00000
    106      -0.1668      2.00000
    107      -0.1405      2.00000
    108      -0.1193      2.00000
    109      -0.0907      2.00000
    110      -0.0803      2.00000
    111      -0.0256      2.00000
    112      -0.0091      2.00000
    113       0.1105      2.00000
    114       0.1581      2.00000
    115       0.1995      2.00000
    116       0.2083      2.00000
    117       0.2150      2.00000
    118       0.2412      2.00000
    119       0.2656      2.00000
    120       0.2771      2.00000
    121       0.2828      2.00000
    122       0.3228      2.00000
    123       0.3887      2.00000
    124       0.4275      2.00000
    125       0.4342      2.00000
    126       0.4445      2.00000
    127       0.5147      2.00000
    128       0.5470      2.00000
    129       0.5539      2.00000
    130       0.5575      2.00000
    131       0.5691      2.00000
    132       0.5825      2.00000
    133       0.6189      2.00000
    134       0.6738      2.00000
    135       0.7262      2.00000
    136       0.7408      2.00000
    137       0.7477      2.00000
    138       0.7478      2.00000
    139       0.7615      2.00000
    140       0.8139      2.00000
    141       0.8146      2.00000
    142       0.8298      2.00000
    143       0.8539      2.00000
    144       0.8717      2.00000
    145       0.8805      2.00000
    146       0.9221      2.00000
    147       0.9723      2.00000
    148       1.0004      2.00000
    149       1.0258      2.00000
    150       1.0603      2.00000
    151       1.0984      2.00000
    152       1.1245      2.00000
    153       1.1361      2.00000
    154       1.1864      2.00000
    155       1.2019      2.00000
    156       1.2084      2.00000
    157       1.2310      2.00000
    158       1.2404      2.00000
    159       1.2770      2.00000
    160       1.3453      2.00000
    161       1.3936      2.00000
    162       1.4368      2.00000
    163       1.5005      2.00000
    164       1.5294      2.00000
    165       1.5767      2.00000
    166       1.5901      2.00000
    167       1.6137      2.00000
    168       1.6389      2.00000
    169       1.7982      2.00000
    170       1.8020      2.00000
    171       1.9169      2.00000
    172       1.9327      2.00000
    173       2.0384      2.00000
    174       2.0536      2.00000
    175       2.0673      2.00000
    176       2.0975      2.00000
    177       3.8767      0.00000
    178       4.0396      0.00000
    179       4.0488      0.00000
    180       4.1605      0.00000
    181       4.1994      0.00000
    182       4.3796      0.00000
    183       4.3826      0.00000
    184       4.4297      0.00000
    185       4.4545      0.00000
    186       4.4726      0.00000
    187       4.5520      0.00000
    188       4.5667      0.00000
    189       4.5930      0.00000
    190       4.5977      0.00000
    191       4.6366      0.00000
    192       4.6458      0.00000
    193       4.6751      0.00000
    194       4.7373      0.00000
    195       4.7666      0.00000
    196       4.7714      0.00000
    197       4.8383      0.00000
    198       4.8672      0.00000
    199       4.8727      0.00000
    200       4.9886      0.00000
    201       5.1138      0.00000
    202       5.3040      0.00000
    203       5.6174      0.00000
    204       5.7580      0.00000
    205       5.9608      0.00000
    206       5.9815      0.00000
    207       5.9949      0.00000
    208       6.0266      0.00000
    209       7.1876      0.00000
    210       7.2913      0.00000
    211       7.3035      0.00000

 k-point     2 :       0.2500    0.0000    0.0000
  band No.  band energies     occupation 
      1     -10.7994      2.00000
      2     -10.7130      2.00000
      3     -10.6122      2.00000
      4     -10.5316      2.00000
      5     -10.4141      2.00000
      6     -10.2857      2.00000
      7     -10.1283      2.00000
      8     -10.0257      2.00000
      9      -9.8603      2.00000
     10      -9.8497      2.00000
     11      -9.8272      2.00000
     12      -9.8204      2.00000
     13      -9.8080      2.00000
     14      -9.7927      2.00000
     15      -9.7527      2.00000
     16      -9.7009      2.00000
     17      -9.6990      2.00000
     18      -9.6836      2.00000
     19      -9.6671      2.00000
     20      -9.6622      2.00000
     21      -9.6493      2.00000
     22      -9.6396      2.00000
     23      -9.6031      2.00000
     24      -9.5924      2.00000
     25      -9.5869      2.00000
     26      -9.5721      2.00000
     27      -9.5456      2.00000
     28      -9.5226      2.00000
     29      -9.5213      2.00000
     30      -9.5180      2.00000
     31      -9.5107      2.00000
     32      -9.4833      2.00000
     33      -8.1781      2.00000
     34      -8.1258      2.00000
     35      -8.0264      2.00000
     36      -7.9025      2.00000
     37      -7.7637      2.00000
     38      -7.6394      2.00000
     39      -7.5990      2.00000
     40      -7.5728      2.00000
     41      -1.7756      2.00000
     42      -1.7183      2.00000
     43      -1.6989      2.00000
     44      -1.6537      2.00000
     45      -1.6456      2.00000
     46      -1.5612      2.00000
     47      -1.5079      2.00000
     48      -1.4655      2.00000
     49      -1.4260      2.00000
     50      -1.4178      2.00000
     51      -1.4030      2.00000
     52      -1.3656      2.00000
     53      -1.3062      2.00000
     54      -1.2810      2.00000
     55      -1.2491      2.00000
     56      -1.2443      2.00000
     57      -1.2411      2.00000
     58      -1.1693      2.00000
     59      -1.1201      2.00000
     60      -1.1092      2.00000
     61      -1.0650      2.00000
     62      -1.0587      2.00000
     63      -1.0498      2.00000
     64      -0.9965      2.00000
     65      -0.9935      2.00000
     66      -0.9695      2.00000
     67      -0.9568      2.00000
     68      -0.9189      2.00000
     69      -0.9109      2.00000
     70      -0.8945      2.00000
     71      -0.8790      2.00000
     72      -0.8707      2.00000
     73      -0.8542      2.00000
     74      -0.8260      2.00000
     75      -0.7958      2.00000
     76      -0.7804      2.00000
     77      -0.7653      2.00000
     78      -0.7509      2.00000
     79      -0.7254      2.00000
     80      -0.7153      2.00000
     81      -0.6810      2.00000
     82      -0.6424      2.00000
     83      -0.6193      2.00000
     84      -0.5973      2.00000
     85      -0.5959      2.00000
     86      -0.5774      2.00000
     87      -0.5545      2.00000
     88      -0.5206      2.00000
     89      -0.4925      2.00000
     90      -0.4505      2.00000
     91      -0.4480      2.00000
     92      -0.4319      2.00000
     93      -0.4138      2.00000
     94      -0.3756      2.00000
     95      -0.3530      2.00000
     96      -0.3410      2.00000
     97      -0.3380      2.00000
     98      -0.3104      2.00000
     99      -0.2879      2.00000
    100      -0.2833      2.00000
    101      -0.2523      2.00000
    102      -0.2438      2.00000
    103      -0.2388      2.00000
    104      -0.1909      2.00000
    105      -0.1883      2.00000
    106      -0.1718      2.00000
    107      -0.1501      2.00000
    108      -0.1452      2.00000
    109      -0.1193      2.00000
    110      -0.1088      2.00000
    111      -0.0754      2.00000
    112      -0.0415      2.00000
    113       0.1044      2.00000
    114       0.1759      2.00000
    115       0.2024      2.00000
    116       0.2136      2.00000
    117       0.2610      2.00000
    118       0.2774      2.00000
    119       0.2984      2.00000
    120       0.3094      2.00000
    121       0.3343      2.00000
    122       0.3800      2.00000
    123       0.3954      2.00000
    124       0.4343      2.00000
    125       0.4409      2.00000
    126       0.4497      2.00000
    127       0.4699      2.00000
    128       0.4968      2.00000
    129       0.5257      2.00000
    130       0.5487      2.00000
    131       0.5821      2.00000
    132       0.5945      2.00000
    133       0.6461      2.00000
    134       0.6831      2.00000
    135       0.6906      2.00000
    136       0.7059      2.00000
    137       0.7579      2.00000
    138       0.7646      2.00000
    139       0.7675      2.00000
    140       0.7923      2.00000
    141       0.8130      2.00000
    142       0.8232      2.00000
    143       0.8411      2.00000
    144       0.8782      2.00000
    145       0.8804      2.00000
    146       0.9388      2.00000
    147       0.9851      2.00000
    148       0.9900      2.00000
    149       1.0283      2.00000
    150       1.0534      2.00000
    151       1.0706      2.00000
    152       1.1297      2.00000
    153       1.1509      2.00000
    154       1.1869      2.00000
    155       1.2048      2.00000
    156       1.2136      2.00000
    157       1.2329      2.00000
    158       1.2627      2.00000
    159       1.2826      2.00000
    160       1.3092      2.00000
    161       1.4532      2.00000
    162       1.4870      2.00000
    163       1.4933      2.00000
    164       1.5064      2.00000
    165       1.5834      2.00000
    166       1.6102      2.00000
    167       1.6434      2.00000
    168       1.6507      2.00000
    169       1.7750      2.00000
    170       1.7847      2.00000
    171       1.8481      2.00000
    172       1.8579      2.00000
    173       2.0228      2.00000
    174       2.0406      2.00000
    175       2.0625      2.00000
    176       2.0876      2.00000
    177       3.9064      0.00000
    178       4.0073      0.00000
    179       4.1075      0.00000
    180       4.1644      0.00000
    181       4.2346      0.00000
    182       4.3507      0.00000
    183       4.4048      0.00000
    184       4.4473      0.00000
    185       4.4587      0.00000
    186       4.4869      0.00000
    187       4.5404      0.00000
    188       4.5471      0.00000
    189       4.5561      0.00000
    190       4.6003      0.00000
    191       4.6090      0.00000
    192       4.6760      0.00000
    193       4.7127      0.00000
    194       4.7375      0.00000
    195       4.7707      0.00000
    196       4.7874      0.00000
    197       4.7901      0.00000
    198       4.8282      0.00000
    199       4.8648      0.00000
    200       4.9567      0.00000
    201       5.2290      0.00000
    202       5.3867      0.00000
    203       5.6561      0.00000
    204       5.7448      0.00000
    205       5.8710      0.00000
    206       5.9223      0.00000
    207       5.9623      0.00000
    208       5.9801      0.00000
    209       7.2212      0.00000
    210       7.4022      0.00000
    211       7.4139      0.00000

 k-point     3 :       0.5000   -0.0000   -0.0000
  band No.  band energies     occupation 
      1     -10.7641      2.00000
      2     -10.7581      2.00000
      3     -10.5749      2.00000
      4     -10.5724      2.00000
      5     -10.3554      2.00000
      6     -10.3533      2.00000
      7     -10.0696      2.00000
      8     -10.0641      2.00000
      9      -9.8598      2.00000
     10      -9.8511      2.00000
     11      -9.8286      2.00000
     12      -9.8151      2.00000
     13      -9.8082      2.00000
     14      -9.8052      2.00000
     15      -9.7241      2.00000
     16      -9.7230      2.00000
     17      -9.6930      2.00000
     18      -9.6905      2.00000
     19      -9.6603      2.00000
     20      -9.6590      2.00000
     21      -9.6481      2.00000
     22      -9.6417      2.00000
     23      -9.5969      2.00000
     24      -9.5950      2.00000
     25      -9.5838      2.00000
     26      -9.5821      2.00000
     27      -9.5336      2.00000
     28      -9.5320      2.00000
     29      -9.5173      2.00000
     30      -9.5140      2.00000
     31      -9.5028      2.00000
     32      -9.5006      2.00000
     33      -8.1602      2.00000
     34      -8.1579      2.00000
     35      -7.9685      2.00000
     36      -7.9670      2.00000
     37      -7.7011      2.00000
     38      -7.6975      2.00000
     39      -7.5804      2.00000
     40      -7.5760      2.00000
     41      -1.7400      2.00000
     42      -1.7328      2.00000
     43      -1.6895      2.00000
     44      -1.6844      2.00000
     45      -1.5999      2.00000
     46      -1.5950      2.00000
     47      -1.5035      2.00000
     48      -1.5004      2.00000
     49      -1.4368      2.00000
     50      -1.4354      2.00000
     51      -1.3745      2.00000
     52      -1.3727      2.00000
     53      -1.2896      2.00000
     54      -1.2866      2.00000
     55      -1.2538      2.00000
     56      -1.2511      2.00000
     57      -1.1704      2.00000
     58      -1.1640      2.00000
     59      -1.1631      2.00000
     60      -1.1608      2.00000
     61      -1.0726      2.00000
     62      -1.0715      2.00000
     63      -1.0317      2.00000
     64      -1.0260      2.00000
     65      -0.9903      2.00000
     66      -0.9883      2.00000
     67      -0.9454      2.00000
     68      -0.9400      2.00000
     69      -0.8955      2.00000
     70      -0.8882      2.00000
     71      -0.8666      2.00000
     72      -0.8604      2.00000
     73      -0.8441      2.00000
     74      -0.8433      2.00000
     75      -0.7746      2.00000
     76      -0.7721      2.00000
     77      -0.7587      2.00000
     78      -0.7520      2.00000
     79      -0.7159      2.00000
     80      -0.7123      2.00000
     81      -0.6730      2.00000
     82      -0.6679      2.00000
     83      -0.6015      2.00000
     84      -0.5983      2.00000
     85      -0.5499      2.00000
     86      -0.5469      2.00000
     87      -0.5359      2.00000
     88      -0.5318      2.00000
     89      -0.4873      2.00000
     90      -0.4870      2.00000
     91      -0.4433      2.00000
     92      -0.4416      2.00000
     93      -0.3885      2.00000
     94      -0.3845      2.00000
     95      -0.3482      2.00000
     96      -0.3440      2.00000
     97      -0.3093      2.00000
     98      -0.3065      2.00000
     99      -0.2917      2.00000
    100      -0.2880      2.00000
    101      -0.2613      2.00000
    102      -0.2575      2.00000
    103      -0.1895      2.00000
    104      -0.1865      2.00000
    105      -0.1789      2.00000
    106      -0.1774      2.00000
    107      -0.1682      2.00000
    108      -0.1644      2.00000
    109      -0.1624      2.00000
    110      -0.1615      2.00000
    111      -0.1122      2.00000
    112      -0.1099      2.00000
    113       0.1214      2.00000
    114       0.1268      2.00000
    115       0.2301      2.00000
    116       0.2356      2.00000
    117       0.3166      2.00000
    118       0.3232      2.00000
    119       0.3512      2.00000
    120       0.3544      2.00000
    121       0.3836      2.00000
    122       0.3932      2.00000
    123       0.4171      2.00000
    124       0.4181      2.00000
    125       0.4605      2.00000
    126       0.4636      2.00000
    127       0.4785      2.00000
    128       0.4832      2.00000
    129       0.5028      2.00000
    130       0.5055      2.00000
    131       0.5725      2.00000
    132       0.5729      2.00000
    133       0.6135      2.00000
    134       0.6187      2.00000
    135       0.7311      2.00000
    136       0.7328      2.00000
    137       0.7627      2.00000
    138       0.7651      2.00000
    139       0.7831      2.00000
    140       0.7916      2.00000
    141       0.8240      2.00000
    142       0.8270      2.00000
    143       0.8511      2.00000
    144       0.8524      2.00000
    145       0.8758      2.00000
    146       0.8772      2.00000
    147       0.9738      2.00000
    148       0.9770      2.00000
    149       1.0419      2.00000
    150       1.0443      2.00000
    151       1.1179      2.00000
    152       1.1191      2.00000
    153       1.1771      2.00000
    154       1.1836      2.00000
    155       1.2188      2.00000
    156       1.2201      2.00000
    157       1.2421      2.00000
    158       1.2475      2.00000
    159       1.2702      2.00000
    160       1.2712      2.00000
    161       1.4800      2.00000
    162       1.4832      2.00000
    163       1.5477      2.00000
    164       1.5536      2.00000
    165       1.6402      2.00000
    166       1.6426      2.00000
    167       1.6897      2.00000
[...]
    143       0.8309      2.00000
    144       0.9149      2.00000
    145       0.9459      2.00000
    146       0.9860      2.00000
    147       1.0192      2.00000
    148       1.0421      2.00000
    149       1.0492      2.00000
    150       1.0854      2.00000
    151       1.0970      2.00000
    152       1.1240      2.00000
    153       1.1380      2.00000
    154       1.1435      2.00000
    155       1.1893      2.00000
    156       1.1970      2.00000
    157       1.2352      2.00000
    158       1.2693      2.00000
    159       1.2763      2.00000
    160       1.2951      2.00000
    161       1.5243      2.00000
    162       1.5277      2.00000
    163       1.5848      2.00000
    164       1.5993      2.00000
    165       1.6272      2.00000
    166       1.6284      2.00000
    167       1.6678      2.00000
    168       1.6847      2.00000
    169       1.7756      2.00000
    170       1.8128      2.00000
    171       1.8787      2.00000
    172       1.8885      2.00000
    173       1.8911      2.00000
    174       1.9106      2.00000
    175       2.0501      2.00000
    176       2.0686      2.00000
    177       3.7598      0.00000
    178       3.8197      0.00000
    179       4.0032      0.00000
    180       4.0609      0.00000
    181       4.1216      0.00000
    182       4.1453      0.00000
    183       4.2759      0.00000
    184       4.3242      0.00000
    185       4.3664      0.00000
    186       4.4199      0.00000
    187       4.4810      0.00000
    188       4.4963      0.00000
    189       4.6487      0.00000
    190       4.6608      0.00000
    191       4.6947      0.00000
    192       4.7601      0.00000
    193       4.8212      0.00000
    194       4.8325      0.00000
    195       4.8445      0.00000
    196       4.8619      0.00000
    197       4.9244      0.00000
    198       4.9288      0.00000
    199       4.9906      0.00000
    200       5.0191      0.00000
    201       5.5890      0.00000
    202       5.5996      0.00000
    203       5.6267      0.00000
    204       5.6421      0.00000
    205       5.6572      0.00000
    206       5.7128      0.00000
    207       5.8038      0.00000
    208       5.8450      0.00000
    209       7.3902      0.00000
    210       7.4347      0.00000
    211       7.5574      0.00000

 k-point    36 :       0.5000    0.5000    0.5000
  band No.  band energies     occupation 
      1     -10.7399      2.00000
      2     -10.7337      2.00000
      3     -10.6097      2.00000
      4     -10.6075      2.00000
      5     -10.3530      2.00000
      6     -10.3517      2.00000
      7     -10.0869      2.00000
      8     -10.0809      2.00000
      9      -9.8780      2.00000
     10      -9.8697      2.00000
     11      -9.7878      2.00000
     12      -9.7779      2.00000
     13      -9.7582      2.00000
     14      -9.7545      2.00000
     15      -9.7156      2.00000
     16      -9.7152      2.00000
     17      -9.6954      2.00000
     18      -9.6901      2.00000
     19      -9.6688      2.00000
     20      -9.6662      2.00000
     21      -9.6644      2.00000
     22      -9.6622      2.00000
     23      -9.6015      2.00000
     24      -9.5995      2.00000
     25      -9.5794      2.00000
     26      -9.5784      2.00000
     27      -9.5520      2.00000
     28      -9.5496      2.00000
     29      -9.5178      2.00000
     30      -9.5163      2.00000
     31      -9.5078      2.00000
     32      -9.5040      2.00000
     33      -8.1616      2.00000
     34      -8.1597      2.00000
     35      -7.9677      2.00000
     36      -7.9666      2.00000
     37      -7.7289      2.00000
     38      -7.7266      2.00000
     39      -7.5531      2.00000
     40      -7.5475      2.00000
     41      -1.7542      2.00000
     42      -1.7468      2.00000
     43      -1.6481      2.00000
     44      -1.6450      2.00000
     45      -1.6026      2.00000
     46      -1.5979      2.00000
     47      -1.5115      2.00000
     48      -1.5076      2.00000
     49      -1.4558      2.00000
     50      -1.4537      2.00000
     51      -1.4294      2.00000
     52      -1.4224      2.00000
     53      -1.3476      2.00000
     54      -1.3446      2.00000
     55      -1.2542      2.00000
     56      -1.2519      2.00000
     57      -1.2359      2.00000
     58      -1.2322      2.00000
     59      -1.1102      2.00000
     60      -1.1056      2.00000
     61      -1.0129      2.00000
     62      -1.0092      2.00000
     63      -0.9779      2.00000
     64      -0.9717      2.00000
     65      -0.9624      2.00000
     66      -0.9591      2.00000
     67      -0.9347      2.00000
     68      -0.9297      2.00000
     69      -0.8826      2.00000
     70      -0.8768      2.00000
     71      -0.8501      2.00000
     72      -0.8457      2.00000
     73      -0.8336      2.00000
     74      -0.8318      2.00000
     75      -0.8095      2.00000
     76      -0.8067      2.00000
     77      -0.7986      2.00000
     78      -0.7925      2.00000
     79      -0.7124      2.00000
     80      -0.7083      2.00000
     81      -0.6635      2.00000
     82      -0.6577      2.00000
     83      -0.5953      2.00000
     84      -0.5887      2.00000
     85      -0.5597      2.00000
     86      -0.5523      2.00000
     87      -0.5181      2.00000
     88      -0.5158      2.00000
     89      -0.4839      2.00000
     90      -0.4822      2.00000
     91      -0.4431      2.00000
     92      -0.4415      2.00000
     93      -0.3695      2.00000
     94      -0.3653      2.00000
     95      -0.3499      2.00000
     96      -0.3468      2.00000
     97      -0.3238      2.00000
     98      -0.3204      2.00000
     99      -0.2783      2.00000
    100      -0.2754      2.00000
    101      -0.2730      2.00000
    102      -0.2706      2.00000
    103      -0.2215      2.00000
    104      -0.2189      2.00000
    105      -0.1763      2.00000
    106      -0.1739      2.00000
    107      -0.1500      2.00000
    108      -0.1460      2.00000
    109      -0.1088      2.00000
    110      -0.1070      2.00000
    111      -0.0484      2.00000
    112      -0.0433      2.00000
    113       0.0691      2.00000
    114       0.0708      2.00000
    115       0.1780      2.00000
    116       0.1798      2.00000
    117       0.2631      2.00000
    118       0.2662      2.00000
    119       0.3184      2.00000
    120       0.3213      2.00000
    121       0.3967      2.00000
    122       0.3982      2.00000
    123       0.4006      2.00000
    124       0.4054      2.00000
    125       0.4519      2.00000
    126       0.4533      2.00000
    127       0.4840      2.00000
    128       0.4888      2.00000
    129       0.5458      2.00000
    130       0.5488      2.00000
    131       0.5829      2.00000
    132       0.5864      2.00000
    133       0.6028      2.00000
    134       0.6118      2.00000
    135       0.6373      2.00000
    136       0.6394      2.00000
    137       0.7041      2.00000
    138       0.7085      2.00000
    139       0.7340      2.00000
    140       0.7382      2.00000
    141       0.7727      2.00000
    142       0.7740      2.00000
    143       0.9093      2.00000
    144       0.9171      2.00000
    145       0.9446      2.00000
    146       0.9463      2.00000
    147       1.0680      2.00000
    148       1.0718      2.00000
    149       1.0892      2.00000
    150       1.0921      2.00000
    151       1.1100      2.00000
    152       1.1149      2.00000
    153       1.1237      2.00000
    154       1.1266      2.00000
    155       1.2108      2.00000
    156       1.2112      2.00000
    157       1.2413      2.00000
    158       1.2438      2.00000
    159       1.3047      2.00000
    160       1.3061      2.00000
    161       1.5187      2.00000
    162       1.5217      2.00000
    163       1.6188      2.00000
    164       1.6226      2.00000
    165       1.6239      2.00000
    166       1.6271      2.00000
    167       1.7343      2.00000
    168       1.7398      2.00000
    169       1.8114      2.00000
    170       1.8138      2.00000
    171       1.8774      2.00000
    172       1.8820      2.00000
    173       1.8998      2.00000
    174       1.9047      2.00000
    175       2.0574      2.00000
    176       2.0636      2.00000
    177       3.7443      0.00000
    178       3.7510      0.00000
    179       3.9493      0.00000
    180       3.9544      0.00000
    181       4.0781      0.00000
    182       4.0800      0.00000
    183       4.2636      0.00000
    184       4.2662      0.00000
    185       4.3533      0.00000
    186       4.3539      0.00000
    187       4.4600      0.00000
    188       4.4633      0.00000
    189       4.6550      0.00000
    190       4.6575      0.00000
    191       4.7405      0.00000
    192       4.7415      0.00000
    193       4.8565      0.00000
    194       4.8610      0.00000
    195       4.8872      0.00000
    196       4.8898      0.00000
    197       4.9912      0.00000
    198       4.9930      0.00000
    199       5.0683      0.00000
    200       5.0718      0.00000
    201       5.5817      0.00000
    202       5.5823      0.00000
    203       5.6069      0.00000
    204       5.6122      0.00000
    205       5.6408      0.00000
    206       5.6463      0.00000
    207       5.8392      0.00000
    208       5.8414      0.00000
    209       7.2764      0.00000
    210       7.2767      0.00000
    211       7.5417      0.00000


--------------------------------------------------------------------------------------------------------


 soft charge-density along one line, spin component           1
         0         1         2         3         4         5         6         7         8         9
 total charge-density along one line
 
 pseudopotential strength for first ion, spin component:           1
 -6.497  -0.000  -0.000  -0.003   0.001  -6.630  -0.000  -0.000
 -0.000  -6.504  -0.002   0.000   0.003  -0.000  -6.637  -0.002
 -0.000  -0.002  -6.497   0.001  -0.004  -0.000  -0.002  -6.630
 -0.003   0.000   0.001  -6.497  -0.001  -0.002   0.000   0.001
  0.001   0.003  -0.004  -0.001  -6.493   0.001   0.003  -0.004
 -6.630  -0.000  -0.000  -0.002   0.001  -6.732  -0.000  -0.000
 -0.000  -6.637  -0.002   0.000   0.003  -0.000  -6.739  -0.002
 -0.000  -0.002  -6.630   0.001  -0.004  -0.000  -0.002  -6.732
 -0.002   0.000   0.001  -6.630  -0.001  -0.002   0.000   0.001
  0.001   0.003  -0.004  -0.001  -6.626   0.001   0.003  -0.003
  0.000  -0.000  -0.001  -0.000   0.001   0.000  -0.000  -0.001
  0.000  -0.001  -0.001  -0.000   0.002   0.000  -0.001  -0.001
  0.000  -0.006   0.004   0.000   0.007   0.000  -0.005   0.004
  0.000  -0.006  -0.008   0.000   0.000   0.000  -0.005  -0.007
 -0.005   0.000  -0.000  -0.005   0.000  -0.005   0.000  -0.000
  0.000  -0.007   0.005   0.000   0.008   0.000  -0.007   0.004
  0.000  -0.007  -0.009   0.000   0.000   0.000  -0.007  -0.009
 -0.007   0.000  -0.000  -0.007   0.000  -0.007   0.000  -0.000
 total augmentation occupancy for first ion, spin component:           1
  2.413   0.015  -0.047   0.025   0.162  -0.419  -0.013   0.045  -0.015  -0.143  -0.035   0.006   0.020   0.002   0.080  -0.001
  0.015   2.335  -0.134  -0.015   0.229  -0.013  -0.330   0.129   0.012  -0.221   0.200  -0.034   0.053   0.055   0.000  -0.006
 -0.047  -0.134   3.789   0.114  -0.336   0.045   0.129  -1.660  -0.099   0.335   0.219  -0.033   0.088  -0.234  -0.020  -0.004
  0.025  -0.015   0.114   2.408  -0.116  -0.015   0.012  -0.099  -0.413   0.105   0.031  -0.006  -0.002  -0.019   0.078   0.000
  0.162   0.229  -0.336  -0.116   4.179  -0.143  -0.221   0.335   0.105  -2.051  -0.363   0.053   0.227   0.036  -0.011  -0.009
 -0.419  -0.013   0.045  -0.015  -0.143   0.407   0.011  -0.043   0.006   0.127   0.031  -0.007  -0.018  -0.002  -0.064   0.001
 -0.013  -0.330   0.129   0.012  -0.221   0.011   0.308  -0.124  -0.010   0.214  -0.185   0.040  -0.039  -0.040  -0.000   0.003
  0.045   0.129  -1.660  -0.099   0.335  -0.043  -0.124   1.526   0.086  -0.332  -0.193   0.036  -0.082   0.212   0.018   0.006
 -0.015   0.012  -0.099  -0.413   0.105   0.006  -0.010   0.086   0.402  -0.095  -0.027   0.006   0.001   0.018  -0.063  -0.000
 -0.143  -0.221   0.335   0.105  -2.051   0.127   0.214  -0.332  -0.095   1.917   0.322  -0.059  -0.205  -0.031   0.009   0.013
 -0.035   0.200   0.219   0.031  -0.363   0.031  -0.185  -0.193  -0.027   0.322   1.489  -0.315   0.047   0.045  -0.001  -0.005
  0.006  -0.034  -0.033  -0.006   0.053  -0.007   0.040   0.036   0.006  -0.059  -0.315   0.072  -0.011  -0.010   0.000   0.001
  0.020   0.053   0.088  -0.002   0.227  -0.018  -0.039  -0.082   0.001  -0.205   0.047  -0.011   0.081  -0.014   0.002  -0.005
  0.002   0.055  -0.234  -0.019   0.036  -0.002  -0.040   0.212   0.018  -0.031   0.045  -0.010  -0.014   0.080  -0.001   0.001
  0.080   0.000  -0.020   0.078  -0.011  -0.064  -0.000   0.018  -0.063   0.009  -0.001   0.000   0.002  -0.001   0.119  -0.000
 -0.001  -0.006  -0.004   0.000  -0.009   0.001   0.003   0.006  -0.000   0.013  -0.005   0.001  -0.005   0.001  -0.000   0.000
 -0.000  -0.006   0.010   0.001  -0.001   0.000   0.003  -0.014  -0.001   0.001  -0.004   0.001   0.001  -0.005   0.000  -0.000
 -0.007   0.000   0.001  -0.007   0.001   0.004   0.000  -0.001   0.004  -0.001   0.000  -0.000  -0.000   0.000  -0.008   0.000


------------------------ aborting loop because EDIFF is reached ----------------------------------------


 


 total charge     
 
# of ion       s       p       d       tot
------------------------------------------
    1        0.253   0.159   9.312   9.724
    2        0.242   0.152   9.320   9.713
    3        0.241   0.152   9.320   9.713
    4        0.239   0.148   9.323   9.709
    5        0.241   0.151   9.320   9.713
    6        0.241   0.152   9.320   9.713
    7        0.253   0.158   9.312   9.723
    8        0.238   0.147   9.323   9.708
    9        1.833   1.401   0.135   3.369
   10        1.834   1.402   0.138   3.374
   11        1.834   1.401   0.138   3.373
   12        1.835   1.398   0.139   3.372
   13        1.833   1.401   0.136   3.370
   14        1.834   1.401   0.139   3.374
   15        1.834   1.402   0.139   3.374
   16        1.835   1.398   0.139   3.372
   17        1.518   2.742   0.011   4.271
   18        1.518   2.742   0.012   4.272
   19        1.514   2.742   0.017   4.274
   20        1.518   2.743   0.012   4.273
   21        1.518   2.742   0.011   4.271
   22        1.514   2.742   0.017   4.274
   23        1.518   2.742   0.012   4.272
   24        1.518   2.742   0.013   4.273
   25        1.514   2.743   0.015   4.272
   26        1.516   2.743   0.015   4.274
   27        1.517   2.746   0.013   4.276
   28        1.513   2.748   0.016   4.277
   29        1.514   2.743   0.015   4.272
   30        1.517   2.745   0.013   4.275
   31        1.516   2.743   0.015   4.274
   32        1.513   2.748   0.016   4.277
   33        1.517   2.746   0.013   4.275
   34        1.515   2.743   0.015   4.272
   35        1.513   2.748   0.016   4.277
   36        1.516   2.744   0.015   4.274
   37        1.516   2.743   0.015   4.274
   38        1.514   2.743   0.015   4.272
   39        1.513   2.748   0.016   4.277
   40        1.517   2.745   0.012   4.275
   41        1.514   2.742   0.017   4.274
   42        1.518   2.742   0.011   4.272
   43        1.518   2.743   0.012   4.273
   44        1.519   2.742   0.012   4.272
   45        1.519   2.742   0.012   4.272
   46        1.518   2.742   0.011   4.271
   47        1.518   2.742   0.013   4.273
   48        1.514   2.742   0.017   4.274
--------------------------------------------------
tot         65.138 100.218  76.095 241.451
 


--------------------------------------------------------------------------------------------------------



  FREE ENERGIE OF THE ION-ELECTRON SYSTEM (eV)
  ---------------------------------------------------
  free  energy   TOTEN  =      -119.96706341 eV

  energy  without entropy=     -119.96706341  energy(sigma->0) =     -119.96706341
 


--------------------------------------------------------------------------------------------------------




--------------------------------------------------------------------------------------------------------


 writing wavefunctions
     LOOP+:  cpu time  105.9900: real time  106.0507
    4ORBIT:  cpu time    0.0000: real time    0.0000
 


 total charge     
 
# of ion       s       p       d       tot
------------------------------------------
    1        0.253   0.159   9.312   9.724
    2        0.242   0.152   9.320   9.713
    3        0.241   0.152   9.320   9.713
    4        0.239   0.148   9.323   9.709
    5        0.241   0.151   9.320   9.713
    6        0.241   0.152   9.320   9.713
    7        0.253   0.158   9.312   9.723
    8        0.238   0.147   9.323   9.708
    9        1.833   1.401   0.135   3.369
   10        1.834   1.402   0.138   3.374
   11        1.834   1.401   0.138   3.373
   12        1.835   1.398   0.139   3.372
   13        1.833   1.401   0.136   3.370
   14        1.834   1.401   0.139   3.374
   15        1.834   1.402   0.139   3.374
   16        1.835   1.398   0.139   3.372
   17        1.518   2.742   0.011   4.271
   18        1.518   2.742   0.012   4.272
   19        1.514   2.742   0.017   4.274
   20        1.518   2.743   0.012   4.273
   21        1.518   2.742   0.011   4.271
   22        1.514   2.742   0.017   4.274
   23        1.518   2.742   0.012   4.272
   24        1.518   2.742   0.013   4.273
   25        1.514   2.743   0.015   4.272
   26        1.516   2.743   0.015   4.274
   27        1.517   2.746   0.013   4.276
   28        1.513   2.748   0.016   4.277
   29        1.514   2.743   0.015   4.272
   30        1.517   2.745   0.013   4.275
   31        1.516   2.743   0.015   4.274
   32        1.513   2.748   0.016   4.277
   33        1.517   2.746   0.013   4.275
   34        1.515   2.743   0.015   4.272
   35        1.513   2.748   0.016   4.277
   36        1.516   2.744   0.015   4.274
   37        1.516   2.743   0.015   4.274
   38        1.514   2.743   0.015   4.272
   39        1.513   2.748   0.016   4.277
   40        1.517   2.745   0.012   4.275
   41        1.514   2.742   0.017   4.274
   42        1.518   2.742   0.011   4.272
   43        1.518   2.743   0.012   4.273
   44        1.519   2.742   0.012   4.272
   45        1.519   2.742   0.012   4.272
   46        1.518   2.742   0.011   4.271
   47        1.518   2.742   0.013   4.273
   48        1.514   2.742   0.017   4.274
--------------------------------------------------
tot         65.138 100.218  76.095 241.451
 
 BZINTS: Fermi energy:    2.097497;  352.000000 electrons
         Band energy:-0.746069E+03;  BLOECHL correction:    0.000000

 total amount of memory used by VASP MPI-rank0  2761676. kBytes
=======================================================================

   base      :      30000. kBytes
   nonl-proj :     301348. kBytes
   fftplans  :      34720. kBytes
   grid      :      70000. kBytes
   one-center:        746. kBytes
   wavefun   :    2324862. kBytes
 
  
  
 General timing and accounting informations for this job:
 ========================================================
  
                  Total CPU time used (sec):      145.710
                            User time (sec):      140.657
                          System time (sec):        5.053
                         Elapsed time (sec):      146.421
  
                   Maximum memory used (kb):     4317644.
                   Average memory used (kb):           0.
  
                          Minor page faults:       418847
                          Major page faults:            0
                 Voluntary context switches:         2302
