 vasp.6.1.0 28Jan20 (build Jan 13 2021 21:44:47) complex                        
  
 executed on             LinuxIFC date 2021.09.12  19:23:37
 running on    9 total cores
 distrk:  each k-point on    1 cores,    9 groups
 distr:  one band on NCORE=   1 cores,    1 groups


--------------------------------------------------------------------------------------------------------


 INCAR:
 POTCAR:    PAW_PBE Ag 02Apr2005                  
 POTCAR:    PAW_PBE Bi 08Apr2002                  
 POTCAR:    PAW_PBE I 08Apr2002                   
 -----------------------------------------------------------------------------
|                                                                             |
|           W    W    AA    RRRRR   N    N  II  N    N   GGGG   !!!           |
|           W    W   A  A   R    R  NN   N  II  NN   N  G    G  !!!           |
|           W    W  A    A  R    R  N N  N  II  N N  N  G       !!!           |
|           W WW W  AAAAAA  RRRRR   N  N N  II  N  N N  G  GGG   !            |
|           WW  WW  A    A  R   R   N   NN  II  N   NN  G    G                |
|           W    W  A    A  R    R  N    N  II  N    N   GGGG   !!!           |
|                                                                             |
|     For optimal performance we recommend to set                             |
|       NCORE = 4 - approx SQRT(number of cores).                             |
|     NCORE specifies how many cores store one orbital (NPAR=cpu/NCORE).      |
|     This setting can greatly improve the performance of VASP for DFT.       |
|     The default, NCORE=1 might be grossly inefficient on modern             |
|     multi-core architectures or massively parallel machines. Do your        |
|     own testing!!!!                                                         |
|     Unfortunately you need to use the default for GW and RPA                |
|     calculations (for HF NCORE is supported but not extensively tested      |
|     yet).                                                                   |
|                                                                             |
 -----------------------------------------------------------------------------

 POTCAR:    PAW_PBE Ag 02Apr2005                  
   VRHFIN =Ag : s1 d10                                                                              
   LEXCH  = PE                                                                                      
   EATOM  =  1037.2675 eV,   76.2370 Ry                                                             
                                                                                                    
   TITEL  = PAW_PBE Ag 02Apr2005                                                                    
   LULTRA =        F    use ultrasoft PP ?                                                          
   IUNSCR =        1    unscreen: 0-lin 1-nonlin 2-no                                               
   RPACOR =    2.000    partial core radius                                                         
   POMASS =  107.868; ZVAL   =   11.000    mass and valenz                                          
   RCORE  =    2.500    outmost cutoff radius                                                       
   RWIGS  =    2.840; RWIGS  =    1.503    wigner-seitz radius (au A)                               
   ENMAX  =  249.844; ENMIN  =  187.383 eV                                                          
   ICORE  =        3    local potential                                                             
   LCOR   =        T    correct aug charges                                                         
   LPAW   =        T    paw PP                                                                      
   EAUG   =  412.496                                                                                
   DEXC   =    0.000                                                                                
   RMAX   =    2.560    core radius for proj-oper                                                   
   RAUG   =    1.300    factor for augmentation sphere                                              
   RDEP   =    2.576    radius for radial grids                                                     
   RDEPT  =    2.072    core radius for aug-charge                                                  
                                                                                                    
   Atomic configuration                                                                             
   12 entries                                                                                       
     n  l   j            E        occ.                                                              
     1  0  0.50    -25324.9161   2.0000                                                             
     2  0  0.50     -3728.5341   2.0000                                                             
     2  1  1.50     -3344.0404   6.0000                                                             
     3  0  0.50      -683.5581   2.0000                                                             
     3  1  1.50      -557.3225   6.0000                                                             
     3  2  2.50      -358.3853  10.0000                                                             
     4  0  0.50       -95.0341   2.0000                                                             
     4  1  1.50       -58.5511   6.0000                                                             
     4  2  2.50        -7.4440  10.0000                                                             
     5  0  0.50        -4.4045   1.0000                                                             
     5  1  0.50        -1.3606   0.0000                                                             
     4  3  2.50        -1.3606   0.0000                                                             
   Description                                                                                      
     l       E           TYP  RCUT    TYP  RCUT                                                     
     2     -7.4439781     23  2.400                                                                 
     2     -8.8045607     23  2.400                                                                 
     0     -4.4044681     23  2.400                                                                 
     0      1.9520038     23  2.400                                                                 
     1     -1.3605826     23  2.500                                                                 
     1     27.2116520     23  2.500                                                                 
     3     -4.0817478     23  2.400                                                                 
  local pseudopotential read in
  partial core-charges read in
  partial kinetic energy density read in
  atomic valenz-charges read in
  non local Contribution for L=           2  read in
    real space projection operators read in
  non local Contribution for L=           2  read in
    real space projection operators read in
  non local Contribution for L=           0  read in
    real space projection operators read in
  non local Contribution for L=           0  read in
    real space projection operators read in
  non local Contribution for L=           1  read in
    real space projection operators read in
  non local Contribution for L=           1  read in
    real space projection operators read in
    PAW grid and wavefunctions read in
 
   number of l-projection  operators is LMAX  =           6
   number of lm-projection operators is LMMAX =          18
 
 POTCAR:    PAW_PBE Bi 08Apr2002                  
   VRHFIN =Bi:                                                                                      
   LEXCH  = PE                                                                                      
   EATOM  =   150.8133 eV,   11.0845 Ry                                                             
                                                                                                    
   TITEL  = PAW_PBE Bi 08Apr2002                                                                    
   LULTRA =        F    use ultrasoft PP ?                                                          
   IUNSCR =        1    unscreen: 0-lin 1-nonlin 2-no                                               
   RPACOR =    2.200    partial core radius                                                         
   POMASS =  208.980; ZVAL   =    5.000    mass and valenz                                          
   RCORE  =    3.000    outmost cutoff radius                                                       
   RWIGS  =    3.090; RWIGS  =    1.635    wigner-seitz radius (au A)                               
   ENMAX  =  105.037; ENMIN  =   78.777 eV                                                          
   ICORE  =        3    local potential                                                             
   LCOR   =        T    correct aug charges                                                         
   LPAW   =        T    paw PP                                                                      
   EAUG   =  265.427                                                                                
   DEXC   =    0.000                                                                                
   RMAX   =    3.067    core radius for proj-oper                                                   
   RAUG   =    1.300    factor for augmentation sphere                                              
   RDEP   =    3.012    radius for radial grids                                                     
   RDEPT  =    2.604    core radius for aug-charge                                                  
                                                                                                    
   Atomic configuration                                                                             
   17 entries                                                                                       
     n  l   j            E        occ.                                                              
     1  0  0.50    -90639.6582   2.0000                                                             
     2  0  0.50    -16282.4667   2.0000                                                             
     2  1  1.50    -13922.8287   6.0000                                                             
     3  0  0.50     -3930.4763   2.0000                                                             
     3  1  1.50     -3256.7013   6.0000                                                             
     3  2  2.50     -2581.6169  10.0000                                                             
     4  0  0.50      -902.2614   2.0000                                                             
     4  1  1.50      -681.5915   6.0000                                                             
     4  2  2.50      -429.8249  10.0000                                                             
     4  3  3.50      -152.6004  14.0000                                                             
     5  0  0.50      -157.7156   2.0000                                                             
     5  1  1.50       -95.8054   6.0000                                                             
     5  2  2.50       -27.0806  10.0000                                                             
     6  0  0.50       -14.4732   2.0000                                                             
     6  1  1.50        -4.5702   3.0000                                                             
     6  2  2.50        -2.7212   0.0000                                                             
     5  3  2.50        -2.7212   0.0000                                                             
   Description                                                                                      
     l       E           TYP  RCUT    TYP  RCUT                                                     
     0    -14.4732299     23  3.000                                                                 
     0    -12.2452434     23  3.000                                                                 
     1     -4.5701666     23  3.000                                                                 
     1    -13.6058260     23  3.000                                                                 
     2     -2.7211652     23  3.000                                                                 
     3     -1.3605826      7  3.000                                                                 
  local pseudopotential read in
  partial core-charges read in
  partial kinetic energy density read in
  kinetic energy density of atom read in
  atomic valenz-charges read in
  non local Contribution for L=           0  read in
    real space projection operators read in
  non local Contribution for L=           0  read in
    real space projection operators read in
  non local Contribution for L=           1  read in
    real space projection operators read in
  non local Contribution for L=           1  read in
    real space projection operators read in
  non local Contribution for L=           2  read in
    real space projection operators read in
    PAW grid and wavefunctions read in
 
   number of l-projection  operators is LMAX  =           5
   number of lm-projection operators is LMMAX =          13
 
 POTCAR:    PAW_PBE I 08Apr2002                   
   VRHFIN =I : s2p5                                                                                 
   LEXCH  = PE                                                                                      
   EATOM  =   315.8678 eV,   23.2156 Ry                                                             
                                                                                                    
   TITEL  = PAW_PBE I 08Apr2002                                                                     
   LULTRA =        F    use ultrasoft PP ?                                                          
   IUNSCR =        1    unscreen: 0-lin 1-nonlin 2-no                                               
   RPACOR =    2.200    partial core radius                                                         
   POMASS =  126.904; ZVAL   =    7.000    mass and valenz                                          
   RCORE  =    2.300    outmost cutoff radius                                                       
   RWIGS  =    2.810; RWIGS  =    1.487    wigner-seitz radius (au A)                               
   ENMAX  =  175.647; ENMIN  =  131.735 eV                                                          
   ICORE  =        3    local potential                                                             
   LCOR   =        T    correct aug charges                                                         
   LPAW   =        T    paw PP                                                                      
   EAUG   =  370.139                                                                                
   DEXC   =    0.000                                                                                
   RMAX   =    2.359    core radius for proj-oper                                                   
   RAUG   =    1.300    factor for augmentation sphere                                              
   RDEP   =    2.392    radius for radial grids                                                     
   RDEPT  =    2.170    core radius for aug-charge                                                  
                                                                                                    
   Atomic configuration                                                                             
   13 entries                                                                                       
     n  l   j            E        occ.                                                              
     1  0  0.50    -32976.3739   2.0000                                                             
     2  0  0.50     -5094.5933   2.0000                                                             
     2  1  1.50     -4572.0131   6.0000                                                             
     3  0  0.50     -1028.2813   2.0000                                                             
     3  1  1.50      -859.0250   6.0000                                                             
     3  2  2.50      -605.7620  10.0000                                                             
     4  0  0.50      -180.5540   2.0000                                                             
     4  1  1.50      -127.5306   6.0000                                                             
     4  2  2.50       -50.2720  10.0000                                                             
     5  0  0.50       -17.4058   2.0000                                                             
     5  1  0.50        -7.0851   5.0000                                                             
     5  2  1.50        -7.0750   0.0000                                                             
     4  3  2.50        -7.0750   0.0000                                                             
   Description                                                                                      
     l       E           TYP  RCUT    TYP  RCUT                                                     
     0    -17.4058016     23  2.300                                                                 
     0    -18.7663842     23  2.300                                                                 
     1     -7.0850686     23  2.300                                                                 
     1     -4.2150896     23  2.300                                                                 
     2     -7.0750295     23  2.300                                                                 
     3     -1.3605826     23  2.300                                                                 
  local pseudopotential read in
  partial core-charges read in
  partial kinetic energy density read in
  atomic valenz-charges read in
  non local Contribution for L=           0  read in
    real space projection operators read in
  non local Contribution for L=           0  read in
    real space projection operators read in
  non local Contribution for L=           1  read in
    real space projection operators read in
  non local Contribution for L=           1  read in
    real space projection operators read in
  non local Contribution for L=           2  read in
    real space projection operators read in
    PAW grid and wavefunctions read in
 
   number of l-projection  operators is LMAX  =           5
   number of lm-projection operators is LMMAX =          13
 
 -----------------------------------------------------------------------------
|                                                                             |
|               ----> ADVICE to this user running VASP <----                  |
|                                                                             |
|     You have a (more or less) 'large supercell' and for larger cells it     |
|     might be more efficient to use real-space projection operators.         |
|     Therefore, try LREAL= Auto in the INCAR file.                           |
|     Mind: For very accurate calculation, you might also keep the            |
|     reciprocal projection scheme (i.e. LREAL=.FALSE.).                      |
|                                                                             |
 -----------------------------------------------------------------------------

  PAW_PBE Ag 02Apr2005                  :
 energy of atom  1       EATOM=-1037.2675
 kinetic energy error for atom=    0.0686 (will be added to EATOM!!)
  PAW_PBE Bi 08Apr2002                  :
 energy of atom  2       EATOM= -150.8133
 kinetic energy error for atom=    0.0004 (will be added to EATOM!!)
  PAW_PBE I 08Apr2002                   :
 energy of atom  3       EATOM= -315.8678
 kinetic energy error for atom=    0.0044 (will be added to EATOM!!)
 
 
 POSCAR: Generation Seed Number
  positions in direct lattice
  velocities in cartesian coordinates
 exchange correlation table for  LEXCH =        8
   RHO(1)=    0.500       N(1)  =     2000
   RHO(2)=  100.500       N(2)  =     4000
 


--------------------------------------------------------------------------------------------------------


 ion  position               nearest neighbor table
   1  0.002  0.997  0.005-  27 3.02  17 3.03  21 3.07  25 3.08  33 3.21  34 3.33
   2  0.245  0.240  0.977-  17 2.94  42 2.99  25 3.07  29 3.14  19 3.16  41 3.56
   3  0.760  0.755  0.023-  27 2.94  47 2.99  21 3.07  23 3.14  31 3.15  48 3.55
   4  0.005  0.511  0.477-  28 2.94  35 2.99  20 3.07  24 3.13  26 3.17  36 3.56
   5  0.489  0.995  0.523-  18 2.94  38 2.98  32 3.07  30 3.13  22 3.18  37 3.56
   6  0.775  0.524  0.250-  24 2.96  23 2.96  35 2.97  47 2.97
   7  0.476  0.225  0.749-  30 2.96  38 2.96  42 2.97  29 2.97
   8  0.247  0.753  0.496-  28 3.02  18 3.02  20 3.07  32 3.08  43 3.23  44 3.32
   9  0.502  0.497  1.000-  29 3.07  23 3.07  40 3.14  39 3.14  19 3.18  31 3.19
  10  0.001  0.252  0.246-  25 3.03  35 3.05  41 3.13  45 3.14  26 3.19  33 3.21
  11  0.000  0.751  0.750-  34 3.11  44 3.11  27 3.11  28 3.11  48 3.14  36 3.14
  12  0.250  0.000  0.250-  17 3.11  18 3.11  43 3.12  33 3.12  37 3.13  41 3.14
  13  0.749  0.999  0.753-  21 3.03  38 3.06  48 3.12  46 3.14  22 3.19  34 3.20
  14  0.502  0.751  0.253-  32 3.03  47 3.05  37 3.13  39 3.14  31 3.19  43 3.21
  15  0.249  0.499  0.746-  20 3.03  42 3.06  36 3.12  40 3.14  19 3.20  44 3.20
  16  0.748  0.252  0.500-  30 3.07  24 3.07  46 3.13  45 3.14  22 3.18  26 3.18
  17  0.240  0.010  0.006-   2 2.94   1 3.03  12 3.11
  18  0.260  0.990  0.494-   5 2.94   8 3.02  12 3.11
  19  0.252  0.487  0.997-   2 3.16   9 3.18  15 3.20
  20  0.244  0.511  0.508-  15 3.03   4 3.07   8 3.07
  21  0.761  0.995  0.992-  13 3.03   1 3.07   3 3.07
  22  0.738  0.002  0.502-   5 3.18  16 3.18  13 3.19
  23  0.743  0.508  0.020-   6 2.96   9 3.07   3 3.14
  24  0.759  0.493  0.480-   6 2.96  16 3.07   4 3.13
  25  0.005  0.239  0.008-  10 3.03   2 3.07   1 3.08
  26  0.998  0.262  0.497-   4 3.17  16 3.18  10 3.19
  27  0.989  0.760  0.994-   3 2.94   1 3.02  11 3.11
  28  0.010  0.740  0.506-   4 2.94   8 3.02  11 3.11
  29  0.492  0.257  0.980-   7 2.97   9 3.07   2 3.14
  30  0.508  0.241  0.519-   7 2.96  16 3.07   5 3.13
  31  0.513  0.748  0.002-   3 3.15   9 3.19  14 3.19
  32  0.489  0.756  0.492-  14 3.03   5 3.07   8 3.08
  33  0.005  1.000  0.257-  12 3.12  10 3.21   1 3.21
  34  0.000  0.995  0.742-  11 3.11  13 3.20   1 3.33
  35  0.006  0.492  0.242-   6 2.97   4 2.99  10 3.05
  36  0.003  0.503  0.757-  15 3.12  11 3.14   4 3.56
  37  0.497  0.997  0.243-  14 3.13  12 3.13   5 3.56
  38  0.508  0.994  0.757-   7 2.96   5 2.98  13 3.06
  39  0.491  0.505  0.246-   9 3.14  14 3.14
  40  0.496  0.509  0.753-   9 3.14  15 3.14
  41  0.247  0.247  0.257-  10 3.13  12 3.14   2 3.56
  42  0.245  0.258  0.742-   7 2.97   2 2.99  15 3.06
  43  0.250  0.755  0.242-  12 3.12  14 3.21   8 3.23
  44  0.245  0.750  0.757-  11 3.11  15 3.20   8 3.32
  45  0.755  0.241  0.253-  16 3.14  10 3.14
  46  0.759  0.246  0.746-  16 3.13  13 3.14
  47  0.742  0.755  0.257-   6 2.97   3 2.99  14 3.05
  48  0.753  0.753  0.743-  13 3.12  11 3.14   3 3.55
 
 -----------------------------------------------------------------------------
|                                                                             |
|           W    W    AA    RRRRR   N    N  II  N    N   GGGG   !!!           |
|           W    W   A  A   R    R  NN   N  II  NN   N  G    G  !!!           |
|           W    W  A    A  R    R  N N  N  II  N N  N  G       !!!           |
|           W WW W  AAAAAA  RRRRR   N  N N  II  N  N N  G  GGG   !            |
|           WW  WW  A    A  R   R   N   NN  II  N   NN  G    G                |
|           W    W  A    A  R    R  N    N  II  N    N   GGGG   !!!           |
|                                                                             |
|     The determination of the symmetry of your systems shows a strong        |
|     dependence on the tolerance parameter SYMPREC. This is often the        |
|     result of "noise" in the structural parameters (lattice vectors         |
|     and/or ionic positions). Set NWRITE=3 for more details.                 |
|                                                                             |
 -----------------------------------------------------------------------------

  LATTYP: Found a base centered monoclinic cell.
 ALAT       =    59.6147437191
 B/A-ratio  =     0.3014417431
 C/A-ratio  =     0.6395954207
 COS(beta)  =    -0.9949385045
  
  Lattice vectors:
  
 A1 = (  12.7111305817,  12.7112044496,  25.4178613879)
 A2 = (  25.4178519426,  12.7115383245,  12.7106385852)
 A3 = ( -25.4190428793, -12.7123800551, -25.4187425733)


Analysis of symmetry for initial positions (statically):
=====================================================================
 Subroutine PRICEL returns:
 Original cell was already a primitive cell.
 

 Routine SETGRP: Setting up the symmetry group for a 
 base centered monoclinic supercell.


 Subroutine GETGRP returns: Found  1 space group operations
 (whereof  1 operations were pure point group operations)
 out of a pool of  4 trial point group operations.


The static configuration has the point symmetry C_1 .


Analysis of symmetry for dynamics (positions and initial velocities):
=====================================================================
 Subroutine PRICEL returns:
 Original cell was already a primitive cell.
 

 Routine SETGRP: Setting up the symmetry group for a 
 base centered monoclinic supercell.


 Subroutine GETGRP returns: Found  1 space group operations
 (whereof  1 operations were pure point group operations)
 out of a pool of  4 trial point group operations.


The dynamic configuration has the point symmetry C_1 .


 Subroutine INISYM returns: Found  1 space group operations
 (whereof  1 operations are pure point group operations),
 and found     1 'primitive' translations


----------------------------------------------------------------------------------------

                                     Primitive cell                                     

  volume of cell :    2052.3148

  direct lattice vectors                    reciprocal lattice vectors
    12.707912298  0.001175606  0.000881185     0.078691133 -0.000005179 -0.000007374
     0.000836411 12.708345383  0.000772226    -0.000007279  0.078688451 -0.000005211
     0.001190937  0.000841731 12.708103988    -0.000005456 -0.000004781  0.078689946

  length of vectors
    12.707912383 12.708345434 12.708104072     0.078691133  0.078688451  0.078689946

  position of ions in fractional coordinates (direct lattice)
     0.001928293  0.997123528  0.004585242
     0.244930709  0.239914117  0.976515623
     0.759701598  0.755047983  0.022759212
     0.004554490  0.510799262  0.476928247
     0.489063177  0.995253397  0.523351244
     0.774909416  0.524288148  0.250052128
     0.475509153  0.225166689  0.748919969
     0.246789041  0.752721996  0.496124263
     0.502435113  0.497463862  0.999744856
     0.001340097  0.251847857  0.246257892
     0.000334508  0.750585374  0.750027964
     0.250173052  0.000360595  0.249789232
     0.748989934  0.998861623  0.753418223
     0.501826621  0.751350026  0.253373145
     0.248581178  0.498836709  0.746284588
     0.748203642  0.251982322  0.499869172
     0.239729089  0.010309639  0.005505503
     0.259547402  0.990389127  0.494182567
     0.252041681  0.487264940  0.997409926
     0.244237335  0.511255221  0.507876512
     0.760908935  0.994901848  0.991846350
     0.738048857  0.002064641  0.502371215
     0.742811422  0.508291679  0.019779429
     0.759165471  0.492640920  0.480301828
     0.005461572  0.239426068  0.007972935
     0.998275057  0.262155461  0.497253949
     0.989457817  0.760042338  0.994448837
     0.009703067  0.740376883  0.505538836
     0.491578112  0.257268027  0.979690832
     0.507600723  0.240922571  0.518831059
     0.512912368  0.748083417  0.002341994
     0.489090052  0.756073129  0.491722882
     0.004991147  0.999846529  0.257238638
     0.000295051  0.995028332  0.742493228
     0.006016793  0.491924556  0.242401472
     0.003104644  0.503402730  0.756604658
     0.496721417  0.997200247  0.242973364
     0.508421644  0.994366943  0.757381034
     0.490830854  0.504566039  0.246495515
     0.495713381  0.509394312  0.753403614
     0.247055453  0.246999010  0.256615010
     0.244644167  0.258331789  0.742235254
     0.249836909  0.755304879  0.242372463
     0.244824414  0.750239571  0.757486379
     0.754538400  0.240961934  0.253247383
     0.759186235  0.245963944  0.746194879
     0.741931139  0.755477352  0.257417031
     0.753185895  0.753466290  0.743260215

  ion indices of the primitive-cell ions
   primitive index   ion index
                 1           1
                 2           2
                 3           3
                 4           4
                 5           5
                 6           6
                 7           7
                 8           8
                 9           9
                10          10
                11          11
                12          12
                13          13
                14          14
                15          15
                16          16
                17          17
                18          18
                19          19
                20          20
                21          21
                22          22
                23          23
                24          24
                25          25
                26          26
                27          27
                28          28
                29          29
                30          30
                31          31
                32          32
                33          33
                34          34
                35          35
                36          36
                37          37
                38          38
                39          39
                40          40
                41          41
                42          42
                43          43
                44          44
                45          45
                46          46
                47          47
                48          48

----------------------------------------------------------------------------------------

 
 
 KPOINTS: agbii                                   

Automatic generation of k-mesh.
Space group operators:
 irot       det(A)        alpha          n_x          n_y          n_z        tau_x        tau_y        tau_z
    1     1.000000     0.000001     1.000000     0.000000     0.000000     0.000000     0.000000     0.000000
 TETIRR: Found    192 inequivalent tetrahedra from      384
 
 Subroutine IBZKPT returns following result:
 ===========================================
 
 Found     36 irreducible k-points:
 
 Following reciprocal coordinates:
            Coordinates               Weight
  0.000000  0.000000  0.000000      1.000000
  0.250000  0.000000  0.000000      2.000000
 -0.000000  0.000000 -0.250000      2.000000
  0.500000  0.000000  0.000000      1.000000
  0.000000 -0.000000  0.500000      1.000000
  0.000000  0.250000 -0.000000      2.000000
  0.250000  0.250000 -0.000000      2.000000
 -0.000000 -0.250000 -0.250000      2.000000
  0.500000  0.250000 -0.000000      2.000000
  0.000000 -0.250000  0.500000      2.000000
 -0.250000  0.250000 -0.000000      2.000000
  0.000000 -0.250000  0.250000      2.000000
  0.000000  0.500000 -0.000000      1.000000
  0.250000  0.500000 -0.000000      2.000000
  0.000000  0.500000 -0.250000      2.000000
  0.500000  0.500000 -0.000000      1.000000
  0.000000  0.500000  0.500000      1.000000
  0.250000 -0.000000  0.250000      2.000000
  0.500000 -0.000000  0.250000      2.000000
 -0.250000 -0.000000  0.500000      2.000000
 -0.250000 -0.000000  0.250000      2.000000
  0.250000  0.250000  0.250000      2.000000
  0.500000  0.250000  0.250000      2.000000
 -0.250000 -0.250000  0.500000      2.000000
 -0.250000  0.250000  0.250000      2.000000
 -0.250000 -0.250000  0.250000      2.000000
  0.250000  0.500000  0.250000      2.000000
  0.500000  0.500000  0.250000      2.000000
 -0.250000  0.500000  0.500000      2.000000
 -0.250000  0.500000  0.250000      2.000000
  0.250000 -0.250000  0.250000      2.000000
  0.500000 -0.250000  0.250000      2.000000
 -0.250000  0.250000  0.500000      2.000000
  0.500000  0.000000  0.500000      1.000000
  0.500000  0.250000  0.500000      2.000000
  0.500000  0.500000  0.500000      1.000000
 
 Following cartesian coordinates:
            Coordinates               Weight
  0.000000  0.000000  0.000000      1.000000
  0.019673 -0.000001 -0.000002      2.000000
  0.000001  0.000001 -0.019672      2.000000
  0.039346 -0.000003 -0.000004      1.000000
 -0.000003 -0.000002  0.039345      1.000000
 -0.000002  0.019672 -0.000001      2.000000
  0.019671  0.019671 -0.000003      2.000000
  0.000003 -0.019671 -0.019671      2.000000
  0.039344  0.019670 -0.000005      2.000000
 -0.000001 -0.019675  0.039346      2.000000
 -0.019675  0.019673  0.000001      2.000000
  0.000000 -0.019673  0.019674      2.000000
 -0.000004  0.039344 -0.000003      1.000000
  0.019669  0.039343 -0.000004      2.000000
 -0.000002  0.039345 -0.019675      2.000000
  0.039342  0.039342 -0.000006      1.000000
 -0.000006  0.039342  0.039342      1.000000
  0.019671 -0.000002  0.019671      2.000000
  0.039344 -0.000004  0.019669      2.000000
 -0.019676 -0.000001  0.039347      2.000000
 -0.019674  0.000000  0.019674      2.000000
  0.019670  0.019670  0.019669      2.000000
  0.039342  0.019668  0.019667      2.000000
 -0.019674 -0.019673  0.039348      2.000000
 -0.019676  0.019672  0.019673      2.000000
 -0.019672 -0.019672  0.019676      2.000000
  0.019668  0.039342  0.019668      2.000000
  0.039341  0.039340  0.019666      2.000000
 -0.019679  0.039343  0.039344      2.000000
 -0.019678  0.039344  0.019672      2.000000
  0.019673 -0.019675  0.019672      2.000000
  0.039346 -0.019676  0.019670      2.000000
 -0.019677  0.019671  0.039346      2.000000
  0.039343 -0.000005  0.039341      1.000000
  0.039341  0.019667  0.039340      2.000000
  0.039339  0.039339  0.039339      1.000000
 


--------------------------------------------------------------------------------------------------------




 Dimension of arrays:
   k-points           NKPTS =     36   k-points in BZ     NKDIM =     36   number of bands    NBANDS=    211
   number of dos      NEDOS =   3000   number of ions     NIONS =     48
   non local maximal  LDIM  =      6   non local SUM 2l+1 LMDIM =     18
   total plane-waves  NPLWV = 125000
   max r-space proj   IRMAX =      1   max aug-charges    IRDMAX=   6001
   dimension x,y,z NGX =    50 NGY =   50 NGZ =   50
   dimension x,y,z NGXF=   100 NGYF=  100 NGZF=  100
   support grid    NGXF=   100 NGYF=  100 NGZF=  100
   ions per type =               8   8  32
   NGX,Y,Z   is equivalent  to a cutoff of   6.54,  6.54,  6.54 a.u.
   NGXF,Y,Z  is equivalent  to a cutoff of  13.08, 13.08, 13.08 a.u.

 SYSTEM =  unknown system                          
 POSCAR =  Generation Seed Number                  

 Startparameter for this run:
   NWRITE =      2    write-flag & timer
   PREC   = normal    normal or accurate (medium, high low for compatibility)
   ISTART =      1    job   : 0-new  1-cont  2-samecut
   ICHARG =      1    charge: 1-file 2-atom 10-const
   ISPIN  =      1    spin polarized calculation?
   LNONCOLLINEAR =      F non collinear calculations
   LSORBIT =      F    spin-orbit coupling
   INIWAV =      1    electr: 0-lowe 1-rand  2-diag
   LASPH  =      F    aspherical Exc in radial PAW
   METAGGA=      F    non-selfconsistent MetaGGA calc.

 Electronic Relaxation 1
   ENCUT  =  250.0 eV  18.37 Ry    4.29 a.u.  16.38 16.38 16.38*2*pi/ulx,y,z
   ENINI  =  250.0     initial cutoff
   ENAUG  =  412.5 eV  augmentation charge cutoff
   NELM   =     60;   NELMIN=  2; NELMDL=  0     # of ELM steps 
   EDIFF  = 0.1E-05   stopping-criterion for ELM
   LREAL  =      F    real-space projection
   NLSPLINE    = F    spline interpolate recip. space projectors
   LCOMPAT=      F    compatible to vasp.4.4
   GGA_COMPAT  = T    GGA compatible to vasp.4.4-vasp.4.6
   LMAXPAW     = -100 max onsite density
   LMAXMIX     =    4 max onsite mixed and CHGCAR
   VOSKOWN=      0    Vosko Wilk Nusair interpolation
   ROPT   =    0.00000   0.00000   0.00000
 Ionic relaxation
   EDIFFG = -.1E-01   stopping-criterion for IOM
   NSW    =      0    number of steps for IOM
   NBLOCK =      1;   KBLOCK =      1    inner block; outer block 
   IBRION =     -1    ionic relax: 0-MD 1-quasi-New 2-CG
   NFREE  =      0    steps in history (QN), initial steepest desc. (CG)
   ISIF   =     -1    stress and relaxation
   IWAVPR =     10    prediction:  0-non 1-charg 2-wave 3-comb
   ISYM   =      2    0-nonsym 1-usesym 2-fastsym
   LCORR  =      T    Harris-Foulkes like correction to forces

   POTIM  = 0.5000    time-step for ionic-motion
   TEIN   =    0.0    initial temperature
   TEBEG  =    0.0;   TEEND  =   0.0 temperature during run
   SMASS  =  -3.00    Nose mass-parameter (am)
   estimated Nose-frequenzy (Omega)   =  0.10E-29 period in steps = 0.13E+47 mass=  -0.369E-26a.u.
   SCALEE = 1.0000    scale energy and forces
   NPACO  =    256;   APACO  = 16.0  distance and # of slots for P.C.
   PSTRESS=    0.0 pullay stress

  Mass of Ions in am
   POMASS = 107.87208.98126.90
  Ionic Valenz
   ZVAL   =  11.00  5.00  7.00
  Atomic Wigner-Seitz radii
   RWIGS  =  -1.00 -1.00 -1.00
  virtual crystal weights 
   VCA    =   1.00  1.00  1.00
   NELECT =     352.0000    total number of electrons
   NUPDOWN=      -1.0000    fix difference up-down

 DOS related values:
   EMIN   =  10.00;   EMAX   =-10.00  energy-range for DOS
   EFERMI =   0.00
   ISMEAR =    -5;   SIGMA  =   0.20  broadening in eV -4-tet -1-fermi 0-gaus

 Electronic relaxation 2 (details)
   IALGO  =     38    algorithm
   LDIAG  =      T    sub-space diagonalisation (order eigenvalues)
   LSUBROT=      F    optimize rotation matrix (better conditioning)
   TURBO    =      0    0=normal 1=particle mesh
   IRESTART =      0    0=no restart 2=restart with 2 vectors
   NREBOOT  =      0    no. of reboots
   NMIN     =      0    reboot dimension
   EREF     =   0.00    reference energy to select bands
   IMIX   =      4    mixing-type and parameters
     AMIX     =   0.40;   BMIX     =  1.00
     AMIX_MAG =   1.60;   BMIX_MAG =  1.00
     AMIN     =   0.10
     WC   =   100.;   INIMIX=   1;  MIXPRE=   1;  MAXMIX= -45

 Intra band minimization:
   WEIMIN = 0.0000     energy-eigenvalue tresh-hold
   EBREAK =  0.12E-08  absolut break condition
   DEPER  =   0.30     relativ break condition  

   TIME   =   0.40     timestep for ELM

  volume/ion in A,a.u.               =      42.76       288.54
  Fermi-wavevector in a.u.,A,eV,Ry     =   0.909580  1.718858 11.256595  0.827336
  Thomas-Fermi vector in A             =   2.033642
 
 Write flags
   LWAVE        =      T    write WAVECAR
   LDOWNSAMPLE  =      F    k-point downsampling of WAVECAR
   LCHARG       =      T    write CHGCAR
   LVTOT        =      F    write LOCPOT, total local potential
   LVHAR        =      F    write LOCPOT, Hartree potential only
   LELF         =      F    write electronic localiz. function (ELF)
   LORBIT       =     10    0 simple, 1 ext, 2 COOP (PROOUT), +10 PAW based schemes


 Dipole corrections
   LMONO  =      F    monopole corrections only (constant potential shift)
   LDIPOL =      F    correct potential (dipole corrections)
   IDIPOL =      0    1-x, 2-y, 3-z, 4-all directions 
   EPSILON=  1.0000000 bulk dielectric constant

 Exchange correlation treatment:
   GGA     =    --    GGA type
   LEXCH   =     8    internal setting for exchange type
   VOSKOWN=      0    Vosko Wilk Nusair interpolation
   LHFCALC =     F    Hartree Fock is set to
   LHFONE  =     F    Hartree Fock one center treatment
   AEXX    =    0.0000 exact exchange contribution

 Linear response parameters
   LEPSILON=     F    determine dielectric tensor
   LRPA    =     F    only Hartree local field effects (RPA)
   LNABLA  =     F    use nabla operator in PAW spheres
   LVEL    =     F    velocity operator in full k-point grid
   LINTERFAST=   F  fast interpolation
   KINTER  =     0    interpolate to denser k-point grid
   CSHIFT  =0.1000    complex shift for real part using Kramers Kronig
   OMEGAMAX=  -1.0    maximum frequency
   DEG_THRESHOLD= 0.2000000E-02 threshold for treating states as degnerate
   RTIME   =   -0.100 relaxation time in fs
  (WPLASMAI=    0.000 imaginary part of plasma frequency in eV, 0.658/RTIME)
   DFIELD  = 0.0000000 0.0000000 0.0000000 field for delta impulse in time
 
 Orbital magnetization related:
   ORBITALMAG=     F  switch on orbital magnetization
   LCHIMAG   =     F  perturbation theory with respect to B field
   DQ        =  0.001000  dq finite difference perturbation B field
   LLRAUG    =     F  two centre corrections for induced B field



--------------------------------------------------------------------------------------------------------


 Static calculation
 charge density and potential will be updated during run
 non-spin polarized calculation
 Variant of blocked Davidson
 Davidson routine will perform the subspace rotation
 perform sub-space diagonalisation
    after iterative eigenvector-optimisation
 modified Broyden-mixing scheme, WC =      100.0
 initial mixing is a Kerker type mixing with AMIX =  0.4000 and BMIX =      1.0000
 Hartree-type preconditioning will be used
 using additional bands           35
 reciprocal scheme for non local part
 use partial core corrections
 calculate Harris-corrections to forces 
   (improved forces if not selfconsistent)
 use gradient corrections 
 use of overlap-Matrix (Vanderbilt PP)
 Fermi weights with tetrahedron method with Bloechl corrections


--------------------------------------------------------------------------------------------------------


  energy-cutoff  :      250.00
  volume of cell :     2052.31
      direct lattice vectors                 reciprocal lattice vectors
    12.707912298  0.001175606  0.000881185     0.078691133 -0.000005179 -0.000007374
     0.000836411 12.708345383  0.000772226    -0.000007279  0.078688451 -0.000005211
     0.001190937  0.000841731 12.708103988    -0.000005456 -0.000004781  0.078689946

  length of vectors
    12.707912383 12.708345434 12.708104072     0.078691133  0.078688451  0.078689946


 
 old parameters found on file WAVECAR:
  energy-cutoff  :      250.00
  volume of cell :     2052.31
      direct lattice vectors                 reciprocal lattice vectors
    12.707912298  0.001175606  0.000881185     0.078691133 -0.000005179 -0.000007374
     0.000836411 12.708345383  0.000772226    -0.000007279  0.078688451 -0.000005211
     0.001190937  0.000841731 12.708103988    -0.000005456 -0.000004781  0.078689946

  length of vectors

 
 k-points in units of 2pi/SCALE and weight: agbii                                   
   0.00000000  0.00000000  0.00000000       0.016
   0.01967278 -0.00000129 -0.00000184       0.031
   0.00000136  0.00000120 -0.01967249       0.031
   0.03934557 -0.00000259 -0.00000369       0.016
  -0.00000273 -0.00000239  0.03934497       0.016
  -0.00000182  0.01967211 -0.00000130       0.031
   0.01967096  0.01967082 -0.00000315       0.031
   0.00000318 -0.01967092 -0.01967118       0.031
   0.03934375  0.01966952 -0.00000499       0.031
  -0.00000091 -0.01967450  0.03934628       0.031
  -0.01967460  0.01967341  0.00000054       0.031
   0.00000046 -0.01967331  0.01967379       0.031
  -0.00000364  0.03934423 -0.00000261       0.016
   0.01966914  0.03934293 -0.00000445       0.031
  -0.00000228  0.03934542 -0.01967509       0.031
   0.03934193  0.03934164 -0.00000629       0.016
  -0.00000637  0.03934183  0.03934237       0.016
   0.01967142 -0.00000249  0.01967064       0.031
   0.03934420 -0.00000378  0.01966880       0.031
  -0.01967551 -0.00000110  0.03934682       0.031
  -0.01967415  0.00000010  0.01967433       0.031
   0.01966960  0.01966962  0.01966934       0.031
   0.03934238  0.01966833  0.01966750       0.031
  -0.01967369 -0.01967321  0.03934812       0.031
  -0.01967597  0.01967221  0.01967303       0.031
  -0.01967233 -0.01967201  0.01967563       0.031
   0.01966778  0.03934174  0.01966804       0.031
   0.03934056  0.03934044  0.01966619       0.031
  -0.01967915  0.03934313  0.03934421       0.031
  -0.01967779  0.03934432  0.01967172       0.031
   0.01967324 -0.01967460  0.01967195       0.031
   0.03934602 -0.01967590  0.01967010       0.031
  -0.01967733  0.01967102  0.03934551       0.031
   0.03934284 -0.00000498  0.03934129       0.016
   0.03934102  0.01966713  0.03933998       0.031
   0.03933920  0.03933925  0.03933868       0.016
 
 k-points in reciprocal lattice and weights: agbii                                   
   0.00000000  0.00000000  0.00000000       0.016
   0.25000000  0.00000000  0.00000000       0.031
  -0.00000000  0.00000000 -0.25000000       0.031
   0.50000000  0.00000000  0.00000000       0.016
   0.00000000 -0.00000000  0.50000000       0.016
   0.00000000  0.25000000 -0.00000000       0.031
   0.25000000  0.25000000 -0.00000000       0.031
  -0.00000000 -0.25000000 -0.25000000       0.031
   0.50000000  0.25000000 -0.00000000       0.031
   0.00000000 -0.25000000  0.50000000       0.031
  -0.25000000  0.25000000 -0.00000000       0.031
   0.00000000 -0.25000000  0.25000000       0.031
   0.00000000  0.50000000 -0.00000000       0.016
   0.25000000  0.50000000 -0.00000000       0.031
   0.00000000  0.50000000 -0.25000000       0.031
   0.50000000  0.50000000 -0.00000000       0.016
   0.00000000  0.50000000  0.50000000       0.016
   0.25000000 -0.00000000  0.25000000       0.031
   0.50000000 -0.00000000  0.25000000       0.031
  -0.25000000 -0.00000000  0.50000000       0.031
  -0.25000000 -0.00000000  0.25000000       0.031
   0.25000000  0.25000000  0.25000000       0.031
   0.50000000  0.25000000  0.25000000       0.031
  -0.25000000 -0.25000000  0.50000000       0.031
  -0.25000000  0.25000000  0.25000000       0.031
  -0.25000000 -0.25000000  0.25000000       0.031
   0.25000000  0.50000000  0.25000000       0.031
   0.50000000  0.50000000  0.25000000       0.031
  -0.25000000  0.50000000  0.50000000       0.031
  -0.25000000  0.50000000  0.25000000       0.031
   0.25000000 -0.25000000  0.25000000       0.031
   0.50000000 -0.25000000  0.25000000       0.031
  -0.25000000  0.25000000  0.50000000       0.031
   0.50000000  0.00000000  0.50000000       0.016
   0.50000000  0.25000000  0.50000000       0.031
   0.50000000  0.50000000  0.50000000       0.016
 
 position of ions in fractional coordinates (direct lattice) 
   0.00192829  0.99712353  0.00458524
   0.24493071  0.23991412  0.97651562
   0.75970160  0.75504798  0.02275921
   0.00455449  0.51079926  0.47692825
   0.48906318  0.99525340  0.52335124
   0.77490942  0.52428815  0.25005213
   0.47550915  0.22516669  0.74891997
   0.24678904  0.75272200  0.49612426
   0.50243511  0.49746386  0.99974486
   0.00134010  0.25184786  0.24625789
   0.00033451  0.75058537  0.75002796
   0.25017305  0.00036060  0.24978923
   0.74898993  0.99886162  0.75341822
   0.50182662  0.75135003  0.25337315
   0.24858118  0.49883671  0.74628459
   0.74820364  0.25198232  0.49986917
   0.23972909  0.01030964  0.00550550
   0.25954740  0.99038913  0.49418257
   0.25204168  0.48726494  0.99740993
   0.24423733  0.51125522  0.50787651
   0.76090894  0.99490185  0.99184635
   0.73804886  0.00206464  0.50237121
   0.74281142  0.50829168  0.01977943
   0.75916547  0.49264092  0.48030183
   0.00546157  0.23942607  0.00797293
   0.99827506  0.26215546  0.49725395
   0.98945782  0.76004234  0.99444884
   0.00970307  0.74037688  0.50553884
   0.49157811  0.25726803  0.97969083
   0.50760072  0.24092257  0.51883106
   0.51291237  0.74808342  0.00234199
   0.48909005  0.75607313  0.49172288
   0.00499115  0.99984653  0.25723864
   0.00029505  0.99502833  0.74249323
   0.00601679  0.49192456  0.24240147
   0.00310464  0.50340273  0.75660466
   0.49672142  0.99720025  0.24297336
   0.50842164  0.99436694  0.75738103
   0.49083085  0.50456604  0.24649552
   0.49571338  0.50939431  0.75340361
   0.24705545  0.24699901  0.25661501
   0.24464417  0.25833179  0.74223525
   0.24983691  0.75530488  0.24237246
   0.24482441  0.75023957  0.75748638
   0.75453840  0.24096193  0.25324738
   0.75918623  0.24596394  0.74619488
   0.74193114  0.75547735  0.25741703
   0.75318589  0.75346629  0.74326021
 
 position of ions in cartesian coordinates  (Angst):
   0.02534404 12.67179631  0.05904144
   3.11392160  3.05002137 12.41006318
   9.65487992  9.59632282  0.29047894
   0.05887329  6.49182024  6.06125222
   6.21642768 12.64903938  6.65200155
   9.84821722  6.66395633  3.17877615
   6.04380886  2.86268545  9.51794574
   3.13739392  9.56655884  6.30559746
   6.38650807  6.32337475 12.70568848
   0.01753376  3.20077841  3.12966656
   0.00577193  9.53932989  9.53201328
   3.17947499  0.00508693  3.17456827
   9.51983113 12.69539319  9.57594847
   6.37809888  9.54921885  3.22091469
   3.16025382  6.34030959  9.48446641
   9.50891234  3.20357873  6.35324331
   3.04647142  0.13130492  0.07018371
   3.29972253 12.58692819  6.28111696
   3.20451899  6.19346700 12.67578744
   3.10477910  6.49792255  6.45475755
   9.67157739 12.64528570 12.60592534
   9.37966017  0.02752869  6.38483759
   9.44003110  6.46043611  0.25240611
   9.64839228  6.26194773  6.10477497
   0.06961493  3.04272229  0.10151059
  12.68680334  3.33315427  6.32023700
  12.57576320  9.66088081 12.63901805
   0.12452705  9.40940208  6.42502039
   6.24831346  3.27085348 12.45064481
   6.45136487  3.06276069  6.59399239
   6.51867388  9.50750739  0.03079197
   6.21653148  9.60942734  6.24988036
   0.06456970 12.70661741  3.26979187
   0.00546600 12.64578903  9.43644980
   0.07716101  6.25175827  3.08084830
   0.04077566  6.39805627  9.61540215
   6.31341564 12.67355363  3.08893855
   6.46271135 12.63799376  9.62609283
   6.23815104  6.41298400  3.13331279
   6.30080549  6.47477578  9.57516166
   3.14007123  3.13945517  3.26149867
   3.11001664  3.28388196  9.43281785
   3.17582592  9.59917299  3.08089789
   3.11273681  9.53522900  9.62701076
   9.58911096  3.06332769  3.21914504
   9.64876649  3.12731535  9.48358105
   9.42933430  9.60195601  3.27251957
   9.57293568  9.57682093  9.44667364
 


--------------------------------------------------------------------------------------------------------


 k-point   1 :   0.0000 0.0000 0.0000  plane waves:   18349
 k-point   2 :   0.2500 0.0000 0.0000  plane waves:   18465
 k-point   3 :  -0.0000 0.0000-0.2500  plane waves:   18465
 k-point   4 :   0.5000 0.0000 0.0000  plane waves:   18464
 k-point   5 :   0.0000-0.0000 0.5000  plane waves:   18464
 k-point   6 :   0.0000 0.2500-0.0000  plane waves:   18465
 k-point   7 :   0.2500 0.2500-0.0000  plane waves:   18429
 k-point   8 :  -0.0000-0.2500-0.2500  plane waves:   18429
 k-point   9 :   0.5000 0.2500-0.0000  plane waves:   18418
 k-point  10 :   0.0000-0.2500 0.5000  plane waves:   18418
 k-point  11 :  -0.2500 0.2500-0.0000  plane waves:   18429
 k-point  12 :   0.0000-0.2500 0.2500  plane waves:   18429
 k-point  13 :   0.0000 0.5000-0.0000  plane waves:   18464
 k-point  14 :   0.2500 0.5000-0.0000  plane waves:   18418
 k-point  15 :   0.0000 0.5000-0.2500  plane waves:   18418
 k-point  16 :   0.5000 0.5000-0.0000  plane waves:   18400
 k-point  17 :   0.0000 0.5000 0.5000  plane waves:   18400
 k-point  18 :   0.2500-0.0000 0.2500  plane waves:   18429
 k-point  19 :   0.5000-0.0000 0.2500  plane waves:   18418
 k-point  20 :  -0.2500-0.0000 0.5000  plane waves:   18418
 k-point  21 :  -0.2500-0.0000 0.2500  plane waves:   18429
 k-point  22 :   0.2500 0.2500 0.2500  plane waves:   18430
 k-point  23 :   0.5000 0.2500 0.2500  plane waves:   18435
 k-point  24 :  -0.2500-0.2500 0.5000  plane waves:   18437
 k-point  25 :  -0.2500 0.2500 0.2500  plane waves:   18430
 k-point  26 :  -0.2500-0.2500 0.2500  plane waves:   18430
 k-point  27 :   0.2500 0.5000 0.2500  plane waves:   18437
 k-point  28 :   0.5000 0.5000 0.2500  plane waves:   18432
 k-point  29 :  -0.2500 0.5000 0.5000  plane waves:   18432
 k-point  30 :  -0.2500 0.5000 0.2500  plane waves:   18438
 k-point  31 :   0.2500-0.2500 0.2500  plane waves:   18430
 k-point  32 :   0.5000-0.2500 0.2500  plane waves:   18437
 k-point  33 :  -0.2500 0.2500 0.5000  plane waves:   18438
 k-point  34 :   0.5000 0.0000 0.5000  plane waves:   18400
 k-point  35 :   0.5000 0.2500 0.5000  plane waves:   18432
 k-point  36 :   0.5000 0.5000 0.5000  plane waves:   18336

 maximum and minimum number of plane-waves per node :     18465    18336

 maximum number of plane-waves:     18465
 maximum index in each direction: 
   IXMAX=   16   IYMAX=   16   IZMAX=   16
   IXMIN=  -16   IYMIN=  -16   IZMIN=  -16


 serial   3D FFT for wavefunctions
 parallel 3D FFT for charge:
    minimum data exchange during FFTs selected (reduces bandwidth)


 total amount of memory used by VASP MPI-rank0  2761676. kBytes
=======================================================================

   base      :      30000. kBytes
   nonl-proj :     301348. kBytes
   fftplans  :      34720. kBytes
   grid      :      70000. kBytes
   one-center:        746. kBytes
   wavefun   :    2324862. kBytes
 
     INWAV:  cpu time    4.5621: real time    4.6559
 Broyden mixing: mesh for mixing (old mesh)
   NGX = 33   NGY = 33   NGZ = 33
  (NGX  =100   NGY  =100   NGZ  =100)
  gives a total of  35937 points

 initial charge density was supplied:
 number of electron     352.0000468 magnetization 
 keeping initial charge density in first step


--------------------------------------------------------------------------------------------------------


 Maximum index for augmentation-charges         5627 (set IRDMAX)


--------------------------------------------------------------------------------------------------------


 First call to EWALD:  gamma=   0.139
 Maximum number of real-space cells 3x 3x 3
 Maximum number of reciprocal cells 3x 3x 3

    FEWALD:  cpu time    0.0030: real time    0.0030


--------------------------------------- Iteration      1(   1)  ---------------------------------------


    POTLOK:  cpu time    0.5860: real time    0.5946
    SETDIJ:  cpu time    0.0273: real time    0.0273
     EDDAV:  cpu time   53.5062: real time   53.5084
 BZINTS: Fermi energy:    2.095117;  352.000000 electrons
         Band energy:-0.746913E+03;  BLOECHL correction:    0.000000
       DOS:  cpu time    0.0585: real time    0.0585
    CHARGE:  cpu time    1.2124: real time    1.2125
    MIXING:  cpu time    0.0247: real time    0.0247
    --------------------------------------------
      LOOP:  cpu time   55.4150: real time   55.4260

 eigenvalue-minimisations  :  9528
 total energy-change (2. order) :-0.1199671E+03  (-0.2328119E-06)
 number of electron     352.0000468 magnetization 
 augmentation part      -23.1246418 magnetization 

 Broyden mixing:
  rms(total) = 0.66150E-03    rms(broyden)= 0.66148E-03
  rms(prec ) = 0.76073E-03
  weight for this iteration     100.00

 Free energy of the ion-electron system (eV)
  ---------------------------------------------------
  alpha Z        PSCENC =       226.91370355
  Ewald energy   TEWEN  =    -13912.54745160
  -Hartree energ DENC   =     -6049.38082055
  -exchange      EXHF   =         0.00000000
  -V(xc)+E(xc)   XCENC  =     -1392.24658560
  PAW double counting   =     22653.46575265   -20510.98196983
  entropy T*S    EENTRO =         0.00000000
  eigenvalues    EBANDS =      -746.91347188
  atomic energy  EATOM  =     19611.72375700
  Solvation  Ediel_sol  =         0.00000000
  ---------------------------------------------------
  free energy    TOTEN  =      -119.96708626 eV

  energy without entropy =     -119.96708626  energy(sigma->0) =     -119.96708626


--------------------------------------------------------------------------------------------------------




--------------------------------------- Iteration      1(   2)  ---------------------------------------


    POTLOK:  cpu time    0.5859: real time    0.5864
    SETDIJ:  cpu time    0.0336: real time    0.0336
     EDDAV:  cpu time   48.5681: real time   48.5701
 BZINTS: Fermi energy:    2.095236;  352.000000 electrons
         Band energy:-0.746914E+03;  BLOECHL correction:    0.000000
       DOS:  cpu time    0.0574: real time    0.0574
    --------------------------------------------
      LOOP:  cpu time   49.2449: real time   49.2474

 eigenvalue-minimisations  :  8216
 total energy-change (2. order) :-0.6886330E-07  (-0.1069243E-06)
 number of electron     352.0000468 magnetization 
 augmentation part      -23.1246418 magnetization 

 Free energy of the ion-electron system (eV)
  ---------------------------------------------------
  alpha Z        PSCENC =       226.91370355
  Ewald energy   TEWEN  =    -13912.54745160
  -Hartree energ DENC   =     -6049.37973127
  -exchange      EXHF   =         0.00000000
  -V(xc)+E(xc)   XCENC  =     -1392.24612138
  PAW double counting   =     22653.04730648   -20510.56421329
  entropy T*S    EENTRO =         0.00000000
  eigenvalues    EBANDS =      -746.91433581
  atomic energy  EATOM  =     19611.72375700
  Solvation  Ediel_sol  =         0.00000000
  ---------------------------------------------------
  free energy    TOTEN  =      -119.96708633 eV

  energy without entropy =     -119.96708633  energy(sigma->0) =     -119.96708633


--------------------------------------------------------------------------------------------------------




 average (electrostatic) potential at core
  the test charge radii are     1.1249  1.4024  1.1875
  (the norm of the test charge is              1.0000)
       1 -74.9682       2 -75.0250       3 -75.0244       4 -75.0265       5 -75.0276
       6 -75.1543       7 -75.1497       8 -74.9689       9 -65.4402      10 -65.4978
      11 -65.4628      12 -65.4739      13 -65.4909      14 -65.4994      15 -65.4925
      16 -65.4381      17 -92.9710      18 -92.9716      19 -93.1519      20 -93.0441
      21 -93.0420      22 -93.1496      23 -93.0536      24 -93.0577      25 -93.0402
      26 -93.1524      27 -92.9698      28 -92.9698      29 -93.0535      30 -93.0585
      31 -93.1553      32 -93.0445      33 -93.2980      34 -93.2672      35 -93.2024
      36 -93.3007      37 -93.3118      38 -93.1888      39 -93.2944      40 -93.2919
      41 -93.3125      42 -93.1878      43 -93.2950      44 -93.2693      45 -93.2970
      46 -93.2933      47 -93.1992      48 -93.3023
 
 
 
 E-fermi :   2.0952     XC(G=0):  -7.8214     alpha+bet : -7.7991


 k-point     1 :       0.0000    0.0000    0.0000
  band No.  band energies     occupation 
      1     -10.8172      2.00000
      2     -10.6857      2.00000
      3     -10.6410      2.00000
      4     -10.5049      2.00000
      5     -10.4540      2.00000
      6     -10.2269      2.00000
      7     -10.1938      2.00000
      8     -10.0120      2.00000
      9      -9.8630      2.00000
     10      -9.8549      2.00000
     11      -9.8336      2.00000
     12      -9.8236      2.00000
     13      -9.8025      2.00000
     14      -9.7789      2.00000
     15      -9.7767      2.00000
     16      -9.7077      2.00000
     17      -9.6975      2.00000
     18      -9.6800      2.00000
     19      -9.6776      2.00000
     20      -9.6766      2.00000
     21      -9.6513      2.00000
     22      -9.6260      2.00000
     23      -9.6215      2.00000
     24      -9.5940      2.00000
     25      -9.5810      2.00000
     26      -9.5734      2.00000
     27      -9.5561      2.00000
     28      -9.5285      2.00000
     29      -9.5219      2.00000
     30      -9.5176      2.00000
     31      -9.5102      2.00000
     32      -9.4779      2.00000
     33      -8.1863      2.00000
     34      -8.0879      2.00000
     35      -8.0760      2.00000
     36      -7.8469      2.00000
     37      -7.8209      2.00000
     38      -7.6142      2.00000
     39      -7.5955      2.00000
     40      -7.5943      2.00000
     41      -1.7943      2.00000
     42      -1.7349      2.00000
     43      -1.6867      2.00000
     44      -1.6782      2.00000
     45      -1.6258      2.00000
     46      -1.5594      2.00000
     47      -1.4975      2.00000
     48      -1.4466      2.00000
     49      -1.4386      2.00000
     50      -1.4046      2.00000
     51      -1.4020      2.00000
     52      -1.3625      2.00000
     53      -1.3263      2.00000
     54      -1.2916      2.00000
     55      -1.2827      2.00000
     56      -1.2473      2.00000
     57      -1.2027      2.00000
     58      -1.1972      2.00000
     59      -1.1241      2.00000
     60      -1.0773      2.00000
     61      -1.0726      2.00000
     62      -1.0329      2.00000
     63      -0.9942      2.00000
     64      -0.9893      2.00000
     65      -0.9812      2.00000
     66      -0.9708      2.00000
     67      -0.9534      2.00000
     68      -0.9514      2.00000
     69      -0.9281      2.00000
     70      -0.8931      2.00000
     71      -0.8879      2.00000
     72      -0.8844      2.00000
     73      -0.8490      2.00000
     74      -0.8219      2.00000
     75      -0.8181      2.00000
     76      -0.7848      2.00000
     77      -0.7817      2.00000
     78      -0.7719      2.00000
     79      -0.7533      2.00000
     80      -0.7072      2.00000
     81      -0.6744      2.00000
     82      -0.6642      2.00000
     83      -0.6258      2.00000
     84      -0.6131      2.00000
     85      -0.6011      2.00000
     86      -0.5840      2.00000
     87      -0.5504      2.00000
     88      -0.5215      2.00000
     89      -0.5100      2.00000
     90      -0.4752      2.00000
     91      -0.4469      2.00000
     92      -0.4372      2.00000
     93      -0.4232      2.00000
     94      -0.3813      2.00000
     95      -0.3684      2.00000
     96      -0.3401      2.00000
     97      -0.3211      2.00000
     98      -0.3167      2.00000
     99      -0.2911      2.00000
    100      -0.2855      2.00000
    101      -0.2537      2.00000
    102      -0.2348      2.00000
    103      -0.2305      2.00000
    104      -0.1970      2.00000
    105      -0.1751      2.00000
    106      -0.1686      2.00000
    107      -0.1425      2.00000
    108      -0.1215      2.00000
    109      -0.0929      2.00000
    110      -0.0824      2.00000
    111      -0.0288      2.00000
    112      -0.0104      2.00000
    113       0.1083      2.00000
    114       0.1558      2.00000
    115       0.1990      2.00000
    116       0.2061      2.00000
    117       0.2116      2.00000
    118       0.2389      2.00000
    119       0.2630      2.00000
    120       0.2757      2.00000
    121       0.2817      2.00000
    122       0.3208      2.00000
    123       0.3870      2.00000
    124       0.4245      2.00000
    125       0.4311      2.00000
    126       0.4442      2.00000
    127       0.5127      2.00000
    128       0.5449      2.00000
    129       0.5506      2.00000
    130       0.5536      2.00000
    131       0.5661      2.00000
    132       0.5792      2.00000
    133       0.6185      2.00000
    134       0.6706      2.00000
    135       0.7249      2.00000
    136       0.7375      2.00000
    137       0.7442      2.00000
    138       0.7446      2.00000
    139       0.7579      2.00000
    140       0.8100      2.00000
    141       0.8110      2.00000
    142       0.8276      2.00000
    143       0.8506      2.00000
    144       0.8695      2.00000
    145       0.8767      2.00000
    146       0.9181      2.00000
    147       0.9681      2.00000
    148       0.9982      2.00000
    149       1.0219      2.00000
    150       1.0572      2.00000
    151       1.0952      2.00000
    152       1.1210      2.00000
    153       1.1339      2.00000
    154       1.1827      2.00000
    155       1.1996      2.00000
    156       1.2035      2.00000
    157       1.2276      2.00000
    158       1.2388      2.00000
    159       1.2747      2.00000
    160       1.3437      2.00000
    161       1.3898      2.00000
    162       1.4339      2.00000
    163       1.4996      2.00000
    164       1.5290      2.00000
    165       1.5739      2.00000
    166       1.5888      2.00000
    167       1.6105      2.00000
    168       1.6364      2.00000
    169       1.7928      2.00000
    170       1.7970      2.00000
    171       1.9141      2.00000
    172       1.9300      2.00000
    173       2.0383      2.00000
    174       2.0511      2.00000
    175       2.0660      2.00000
    176       2.0951      2.00000
    177       3.8728      0.00000
    178       4.0353      0.00000
    179       4.0456      0.00000
    180       4.1612      0.00000
    181       4.1960      0.00000
    182       4.3793      0.00000
    183       4.3828      0.00000
    184       4.4283      0.00000
    185       4.4563      0.00000
    186       4.4729      0.00000
    187       4.5496      0.00000
    188       4.5656      0.00000
    189       4.5936      0.00000
    190       4.5980      0.00000
    191       4.6365      0.00000
    192       4.6440      0.00000
    193       4.6718      0.00000
    194       4.7346      0.00000
    195       4.7651      0.00000
    196       4.7708      0.00000
    197       4.8367      0.00000
    198       4.8656      0.00000
    199       4.8716      0.00000
    200       4.9870      0.00000
    201       5.1087      0.00000
    202       5.3034      0.00000
    203       5.6102      0.00000
    204       5.7495      0.00000
    205       5.9558      0.00000
    206       5.9769      0.00000
    207       5.9903      0.00000
    208       6.0248      0.00000
    209       7.1861      0.00000
    210       7.2889      0.00000
    211       7.3018      0.00000

 k-point     2 :       0.2500    0.0000    0.0000
  band No.  band energies     occupation 
      1     -10.8021      2.00000
      2     -10.6916      2.00000
      3     -10.6617      2.00000
      4     -10.5023      2.00000
      5     -10.4503      2.00000
      6     -10.2260      2.00000
      7     -10.1821      2.00000
      8     -10.0227      2.00000
      9      -9.8682      2.00000
     10      -9.8618      2.00000
     11      -9.8405      2.00000
     12      -9.8237      2.00000
     13      -9.8063      2.00000
     14      -9.7688      2.00000
     15      -9.7568      2.00000
     16      -9.7119      2.00000
     17      -9.6986      2.00000
     18      -9.6849      2.00000
     19      -9.6677      2.00000
     20      -9.6650      2.00000
     21      -9.6564      2.00000
     22      -9.6284      2.00000
     23      -9.6145      2.00000
     24      -9.6006      2.00000
     25      -9.5775      2.00000
     26      -9.5755      2.00000
     27      -9.5509      2.00000
     28      -9.5344      2.00000
     29      -9.5238      2.00000
     30      -9.5185      2.00000
     31      -9.5085      2.00000
     32      -9.4839      2.00000
     33      -8.1916      2.00000
     34      -8.0850      2.00000
     35      -8.0754      2.00000
     36      -7.8458      2.00000
     37      -7.8214      2.00000
     38      -7.6447      2.00000
     39      -7.5939      2.00000
     40      -7.5655      2.00000
     41      -1.7720      2.00000
     42      -1.7183      2.00000
     43      -1.6870      2.00000
     44      -1.6633      2.00000
     45      -1.6201      2.00000
     46      -1.5813      2.00000
     47      -1.5293      2.00000
     48      -1.5139      2.00000
     49      -1.4617      2.00000
     50      -1.4176      2.00000
     51      -1.3652      2.00000
     52      -1.3512      2.00000
     53      -1.3174      2.00000
     54      -1.2858      2.00000
     55      -1.2659      2.00000
     56      -1.2403      2.00000
     57      -1.1948      2.00000
     58      -1.1702      2.00000
     59      -1.1460      2.00000
     60      -1.0989      2.00000
     61      -1.0858      2.00000
     62      -1.0529      2.00000
     63      -1.0173      2.00000
     64      -1.0031      2.00000
     65      -0.9856      2.00000
     66      -0.9682      2.00000
     67      -0.9465      2.00000
     68      -0.9341      2.00000
     69      -0.9129      2.00000
     70      -0.9029      2.00000
     71      -0.8801      2.00000
     72      -0.8732      2.00000
     73      -0.8520      2.00000
     74      -0.8413      2.00000
     75      -0.8046      2.00000
     76      -0.7834      2.00000
     77      -0.7815      2.00000
     78      -0.7767      2.00000
     79      -0.7329      2.00000
     80      -0.7223      2.00000
     81      -0.6764      2.00000
     82      -0.6507      2.00000
     83      -0.6288      2.00000
     84      -0.6155      2.00000
     85      -0.6005      2.00000
     86      -0.5583      2.00000
     87      -0.5497      2.00000
     88      -0.5235      2.00000
     89      -0.4771      2.00000
     90      -0.4629      2.00000
     91      -0.4456      2.00000
     92      -0.4345      2.00000
     93      -0.4078      2.00000
     94      -0.3817      2.00000
     95      -0.3661      2.00000
     96      -0.3536      2.00000
     97      -0.3407      2.00000
     98      -0.3304      2.00000
     99      -0.3083      2.00000
    100      -0.2819      2.00000
    101      -0.2693      2.00000
    102      -0.2513      2.00000
    103      -0.1913      2.00000
    104      -0.1884      2.00000
    105      -0.1776      2.00000
    106      -0.1450      2.00000
    107      -0.1266      2.00000
    108      -0.1237      2.00000
    109      -0.1129      2.00000
    110      -0.0970      2.00000
    111      -0.0652      2.00000
    112      -0.0151      2.00000
    113       0.1127      2.00000
    114       0.1398      2.00000
    115       0.1643      2.00000
    116       0.1791      2.00000
    117       0.2094      2.00000
    118       0.2575      2.00000
    119       0.2758      2.00000
    120       0.2952      2.00000
    121       0.3135      2.00000
    122       0.3670      2.00000
    123       0.3833      2.00000
    124       0.3841      2.00000
    125       0.4454      2.00000
    126       0.4783      2.00000
    127       0.5009      2.00000
    128       0.5358      2.00000
    129       0.5558      2.00000
    130       0.5847      2.00000
    131       0.5973      2.00000
    132       0.6215      2.00000
    133       0.6291      2.00000
    134       0.6566      2.00000
    135       0.6811      2.00000
    136       0.7167      2.00000
    137       0.7295      2.00000
    138       0.7492      2.00000
    139       0.7864      2.00000
    140       0.7936      2.00000
    141       0.8053      2.00000
    142       0.8438      2.00000
    143       0.8499      2.00000
    144       0.8645      2.00000
    145       0.8934      2.00000
    146       0.9278      2.00000
    147       1.0021      2.00000
    148       1.0198      2.00000
    149       1.0233      2.00000
    150       1.0398      2.00000
    151       1.0522      2.00000
    152       1.1126      2.00000
    153       1.1587      2.00000
    154       1.1812      2.00000
    155       1.1854      2.00000
    156       1.1907      2.00000
    157       1.2215      2.00000
    158       1.2452      2.00000
    159       1.2789      2.00000
    160       1.3332      2.00000
    161       1.3880      2.00000
    162       1.4466      2.00000
    163       1.5080      2.00000
    164       1.5226      2.00000
    165       1.5655      2.00000
    166       1.5909      2.00000
    167       1.6369      2.00000
    168       1.6594      2.00000
    169       1.7865      2.00000
    170       1.8007      2.00000
    171       1.8907      2.00000
    172       1.9161      2.00000
    173       2.0077      2.00000
    174       2.0133      2.00000
    175       2.0446      2.00000
    176       2.0553      2.00000
    177       3.9335      0.00000
    178       4.0253      0.00000
    179       4.0681      0.00000
    180       4.1799      0.00000
    181       4.2008      0.00000
    182       4.3368      0.00000
    183       4.3586      0.00000
    184       4.4288      0.00000
    185       4.4605      0.00000
    186       4.4848      0.00000
    187       4.5030      0.00000
    188       4.5413      0.00000
    189       4.6125      0.00000
    190       4.6192      0.00000
    191       4.6338      0.00000
    192       4.6584      0.00000
    193       4.6835      0.00000
    194       4.6901      0.00000
    195       4.7312      0.00000
    196       4.7957      0.00000
    197       4.8190      0.00000
    198       4.8633      0.00000
    199       4.8937      0.00000
    200       4.9665      0.00000
    201       5.2365      0.00000
    202       5.3884      0.00000
    203       5.6211      0.00000
    204       5.7624      0.00000
    205       5.8517      0.00000
    206       5.8712      0.00000
    207       5.9938      0.00000
    208       6.0063      0.00000
    209       7.2991      0.00000
    210       7.3308      0.00000
    211       7.4006      0.00000

 k-point     3 :      -0.0000    0.0000   -0.2500
  band No.  band energies     occupation 
      1     -10.8029      2.00000
      2     -10.7165      2.00000
      3     -10.6162      2.00000
      4     -10.5352      2.00000
      5     -10.4178      2.00000
      6     -10.2892      2.00000
      7     -10.1315      2.00000
      8     -10.0283      2.00000
      9      -9.8647      2.00000
     10      -9.8531      2.00000
     11      -9.8304      2.00000
     12      -9.8239      2.00000
     13      -9.8073      2.00000
     14      -9.7960      2.00000
     15      -9.7556      2.00000
     16      -9.7042      2.00000
     17      -9.7012      2.00000
     18      -9.6862      2.00000
     19      -9.6710      2.00000
     20      -9.6658      2.00000
     21      -9.6528      2.00000
     22      -9.6419      2.00000
     23      -9.6062      2.00000
     24      -9.5942      2.00000
     25      -9.5887      2.00000
     26      -9.5748      2.00000
     27      -9.5479      2.00000
     28      -9.5244      2.00000
     29      -9.5220      2.00000
     30      -9.5195      2.00000
     31      -9.5121      2.00000
     32      -9.4848      2.00000
     33      -8.1802      2.00000
     34      -8.1279      2.00000
     35      -8.0286      2.00000
     36      -7.9046      2.00000
     37      -7.7654      2.00000
     38      -7.6412      2.00000
     39      -7.6007      2.00000
     40      -7.5744      2.00000
     41      -1.7786      2.00000
     42      -1.7211      2.00000
     43      -1.7014      2.00000
     44      -1.6573      2.00000
     45      -1.6474      2.00000
     46      -1.5647      2.00000
     47      -1.5101      2.00000
     48      -1.4680      2.00000
     49      -1.4284      2.00000
     50      -1.4196      2.00000
     51      -1.4059      2.00000
     52      -1.3682      2.00000
     53      -1.3066      2.00000
     54      -1.2809      2.00000
     55      -1.2506      2.00000
     56      -1.2452      2.00000
     57      -1.2432      2.00000
     58      -1.1712      2.00000
     59      -1.1207      2.00000
     60      -1.1109      2.00000
     61      -1.0685      2.00000
     62      -1.0612      2.00000
     63      -1.0540      2.00000
     64      -0.9990      2.00000
     65      -0.9950      2.00000
     66      -0.9713      2.00000
     67      -0.9590      2.00000
     68      -0.9198      2.00000
     69      -0.9126      2.00000
     70      -0.8967      2.00000
     71      -0.8818      2.00000
     72      -0.8741      2.00000
     73      -0.8557      2.00000
     74      -0.8280      2.00000
     75      -0.7972      2.00000
     76      -0.7829      2.00000
     77      -0.7668      2.00000
     78      -0.7524      2.00000
     79      -0.7284      2.00000
     80      -0.7172      2.00000
     81      -0.6830      2.00000
     82      -0.6449      2.00000
     83      -0.6206      2.00000
     84      -0.5990      2.00000
     85      -0.5974      2.00000
     86      -0.5800      2.00000
     87      -0.5563      2.00000
     88      -0.5226      2.00000
     89      -0.4942      2.00000
     90      -0.4516      2.00000
     91      -0.4494      2.00000
     92      -0.4327      2.00000
     93      -0.4159      2.00000
     94      -0.3770      2.00000
     95      -0.3549      2.00000
     96      -0.3427      2.00000
     97      -0.3409      2.00000
     98      -0.3122      2.00000
     99      -0.2904      2.00000
    100      -0.2853      2.00000
    101      -0.2551      2.00000
    102      -0.2463      2.00000
    103      -0.2409      2.00000
    104      -0.1931      2.00000
    105      -0.1904      2.00000
    106      -0.1737      2.00000
    107      -0.1522      2.00000
    108      -0.1479      2.00000
    109      -0.1216      2.00000
    110      -0.1106      2.00000
    111      -0.0775      2.00000
    112      -0.0435      2.00000
    113       0.1017      2.00000
    114       0.1734      2.00000
    115       0.2012      2.00000
    116       0.2114      2.00000
    117       0.2581      2.00000
    118       0.2761      2.00000
    119       0.2965      2.00000
    120       0.3077      2.00000
    121       0.3323      2.00000
    122       0.3773      2.00000
    123       0.3940      2.00000
    124       0.4324      2.00000
    125       0.4386      2.00000
    126       0.4464      2.00000
    127       0.4694      2.00000
    128       0.4956      2.00000
    129       0.5222      2.00000
    130       0.5470      2.00000
    131       0.5799      2.00000
    132       0.5922      2.00000
    133       0.6430      2.00000
    134       0.6802      2.00000
    135       0.6880      2.00000
    136       0.7040      2.00000
    137       0.7538      2.00000
    138       0.7618      2.00000
    139       0.7635      2.00000
    140       0.7889      2.00000
    141       0.8099      2.00000
    142       0.8198      2.00000
    143       0.8372      2.00000
    144       0.8746      2.00000
    145       0.8765      2.00000
    146       0.9341      2.00000
    147       0.9805      2.00000
    148       0.9863      2.00000
    149       1.0247      2.00000
    150       1.0508      2.00000
    151       1.0679      2.00000
    152       1.1273      2.00000
    153       1.1490      2.00000
    154       1.1832      2.00000
    155       1.2018      2.00000
    156       1.2115      2.00000
    157       1.2299      2.00000
    158       1.2596      2.00000
    159       1.2802      2.00000
    160       1.3072      2.00000
    161       1.4503      2.00000
    162       1.4844      2.00000
    163       1.4915      2.00000
    164       1.5059      2.00000
    165       1.5803      2.00000
    166       1.6079      2.00000
    167       1.6407      2.00000
[...]
    143       0.8809      2.00000
    144       0.8868      2.00000
    145       0.9531      2.00000
    146       0.9538      2.00000
    147       1.0475      2.00000
    148       1.0483      2.00000
    149       1.0724      2.00000
    150       1.0753      2.00000
    151       1.1072      2.00000
    152       1.1116      2.00000
    153       1.1294      2.00000
    154       1.1348      2.00000
    155       1.1975      2.00000
    156       1.1988      2.00000
    157       1.2436      2.00000
    158       1.2460      2.00000
    159       1.2994      2.00000
    160       1.3011      2.00000
    161       1.4836      2.00000
    162       1.4898      2.00000
    163       1.6129      2.00000
    164       1.6166      2.00000
    165       1.6260      2.00000
    166       1.6279      2.00000
    167       1.7143      2.00000
    168       1.7203      2.00000
    169       1.7872      2.00000
    170       1.7885      2.00000
    171       1.8720      2.00000
    172       1.8753      2.00000
    173       1.9028      2.00000
    174       1.9061      2.00000
    175       2.0205      2.00000
    176       2.0232      2.00000
    177       3.8411      0.00000
    178       3.8476      0.00000
    179       4.0262      0.00000
    180       4.0312      0.00000
    181       4.1376      0.00000
    182       4.1398      0.00000
    183       4.2879      0.00000
    184       4.2933      0.00000
    185       4.3581      0.00000
    186       4.3613      0.00000
    187       4.4614      0.00000
    188       4.4662      0.00000
    189       4.6381      0.00000
    190       4.6417      0.00000
    191       4.7138      0.00000
    192       4.7155      0.00000
    193       4.8051      0.00000
    194       4.8087      0.00000
    195       4.8554      0.00000
    196       4.8594      0.00000
    197       4.9220      0.00000
    198       4.9283      0.00000
    199       5.0504      0.00000
    200       5.0536      0.00000
    201       5.5912      0.00000
    202       5.5936      0.00000
    203       5.6322      0.00000
    204       5.6340      0.00000
    205       5.6673      0.00000
    206       5.6690      0.00000
    207       5.8227      0.00000
    208       5.8247      0.00000
    209       7.3538      0.00000
    210       7.3578      0.00000
    211       7.5264      0.00000

 k-point    36 :       0.5000    0.5000    0.5000
  band No.  band energies     occupation 
      1     -10.7446      2.00000
      2     -10.7362      2.00000
      3     -10.6137      2.00000
      4     -10.6108      2.00000
      5     -10.3565      2.00000
      6     -10.3555      2.00000
      7     -10.0907      2.00000
      8     -10.0822      2.00000
      9      -9.8823      2.00000
     10      -9.8720      2.00000
     11      -9.7925      2.00000
     12      -9.7801      2.00000
     13      -9.7615      2.00000
     14      -9.7564      2.00000
     15      -9.7185      2.00000
     16      -9.7176      2.00000
     17      -9.6988      2.00000
     18      -9.6921      2.00000
     19      -9.6726      2.00000
     20      -9.6692      2.00000
     21      -9.6673      2.00000
     22      -9.6657      2.00000
     23      -9.6048      2.00000
     24      -9.6006      2.00000
     25      -9.5823      2.00000
     26      -9.5806      2.00000
     27      -9.5537      2.00000
     28      -9.5519      2.00000
     29      -9.5179      2.00000
     30      -9.5173      2.00000
     31      -9.5086      2.00000
     32      -9.5066      2.00000
     33      -8.1635      2.00000
     34      -8.1621      2.00000
     35      -7.9699      2.00000
     36      -7.9686      2.00000
     37      -7.7308      2.00000
     38      -7.7281      2.00000
     39      -7.5559      2.00000
     40      -7.5484      2.00000
     41      -1.7585      2.00000
     42      -1.7478      2.00000
     43      -1.6503      2.00000
     44      -1.6480      2.00000
     45      -1.6053      2.00000
     46      -1.6016      2.00000
     47      -1.5134      2.00000
     48      -1.5108      2.00000
     49      -1.4582      2.00000
     50      -1.4558      2.00000
     51      -1.4330      2.00000
     52      -1.4236      2.00000
     53      -1.3499      2.00000
     54      -1.3471      2.00000
     55      -1.2553      2.00000
     56      -1.2531      2.00000
     57      -1.2382      2.00000
     58      -1.2338      2.00000
     59      -1.1119      2.00000
     60      -1.1061      2.00000
     61      -1.0140      2.00000
     62      -1.0101      2.00000
     63      -0.9797      2.00000
     64      -0.9735      2.00000
     65      -0.9651      2.00000
     66      -0.9596      2.00000
     67      -0.9371      2.00000
     68      -0.9322      2.00000
     69      -0.8837      2.00000
     70      -0.8796      2.00000
     71      -0.8529      2.00000
     72      -0.8495      2.00000
     73      -0.8370      2.00000
     74      -0.8349      2.00000
     75      -0.8107      2.00000
     76      -0.8071      2.00000
     77      -0.8006      2.00000
     78      -0.7955      2.00000
     79      -0.7146      2.00000
     80      -0.7097      2.00000
     81      -0.6646      2.00000
     82      -0.6599      2.00000
     83      -0.5969      2.00000
     84      -0.5904      2.00000
     85      -0.5638      2.00000
     86      -0.5545      2.00000
     87      -0.5197      2.00000
     88      -0.5171      2.00000
     89      -0.4841      2.00000
     90      -0.4821      2.00000
     91      -0.4454      2.00000
     92      -0.4443      2.00000
     93      -0.3697      2.00000
     94      -0.3666      2.00000
     95      -0.3527      2.00000
     96      -0.3488      2.00000
     97      -0.3254      2.00000
     98      -0.3219      2.00000
     99      -0.2813      2.00000
    100      -0.2772      2.00000
    101      -0.2751      2.00000
    102      -0.2723      2.00000
    103      -0.2234      2.00000
    104      -0.2213      2.00000
    105      -0.1790      2.00000
    106      -0.1764      2.00000
    107      -0.1508      2.00000
    108      -0.1485      2.00000
    109      -0.1104      2.00000
    110      -0.1086      2.00000
    111      -0.0502      2.00000
    112      -0.0444      2.00000
    113       0.0654      2.00000
    114       0.0680      2.00000
    115       0.1743      2.00000
    116       0.1760      2.00000
    117       0.2615      2.00000
    118       0.2630      2.00000
    119       0.3170      2.00000
    120       0.3199      2.00000
    121       0.3938      2.00000
    122       0.3952      2.00000
    123       0.3983      2.00000
    124       0.4036      2.00000
    125       0.4482      2.00000
    126       0.4497      2.00000
    127       0.4810      2.00000
    128       0.4863      2.00000
    129       0.5433      2.00000
    130       0.5458      2.00000
    131       0.5800      2.00000
    132       0.5839      2.00000
    133       0.6001      2.00000
    134       0.6122      2.00000
    135       0.6348      2.00000
    136       0.6365      2.00000
    137       0.7014      2.00000
    138       0.7059      2.00000
    139       0.7300      2.00000
    140       0.7368      2.00000
    141       0.7688      2.00000
    142       0.7699      2.00000
    143       0.9064      2.00000
    144       0.9132      2.00000
    145       0.9412      2.00000
    146       0.9425      2.00000
    147       1.0645      2.00000
    148       1.0701      2.00000
    149       1.0857      2.00000
    150       1.0876      2.00000
    151       1.1053      2.00000
    152       1.1118      2.00000
    153       1.1223      2.00000
    154       1.1265      2.00000
    155       1.2080      2.00000
    156       1.2086      2.00000
    157       1.2386      2.00000
    158       1.2407      2.00000
    159       1.3023      2.00000
    160       1.3041      2.00000
    161       1.5156      2.00000
    162       1.5224      2.00000
    163       1.6153      2.00000
    164       1.6208      2.00000
    165       1.6214      2.00000
    166       1.6236      2.00000
    167       1.7311      2.00000
    168       1.7370      2.00000
    169       1.8050      2.00000
    170       1.8082      2.00000
    171       1.8746      2.00000
    172       1.8790      2.00000
    173       1.8990      2.00000
    174       1.9020      2.00000
    175       2.0583      2.00000
    176       2.0615      2.00000
    177       3.7407      0.00000
    178       3.7478      0.00000
    179       3.9478      0.00000
    180       3.9543      0.00000
    181       4.0770      0.00000
    182       4.0801      0.00000
    183       4.2623      0.00000
    184       4.2660      0.00000
    185       4.3531      0.00000
    186       4.3544      0.00000
    187       4.4584      0.00000
    188       4.4628      0.00000
    189       4.6525      0.00000
    190       4.6562      0.00000
    191       4.7391      0.00000
    192       4.7398      0.00000
    193       4.8531      0.00000
    194       4.8585      0.00000
    195       4.8858      0.00000
    196       4.8894      0.00000
    197       4.9916      0.00000
    198       4.9930      0.00000
    199       5.0656      0.00000
    200       5.0708      0.00000
    201       5.5757      0.00000
    202       5.5786      0.00000
    203       5.6049      0.00000
    204       5.6078      0.00000
    205       5.6350      0.00000
    206       5.6369      0.00000
    207       5.8361      0.00000
    208       5.8380      0.00000
    209       7.2720      0.00000
    210       7.2753      0.00000
    211       7.5420      0.00000


--------------------------------------------------------------------------------------------------------


 soft charge-density along one line, spin component           1
         0         1         2         3         4         5         6         7         8         9
 total charge-density along one line
 
 pseudopotential strength for first ion, spin component:           1
 -6.399   0.000   0.000   0.000  -0.000  -6.536   0.000   0.000
  0.000  -6.410  -0.000  -0.000  -0.001   0.000  -6.546  -0.000
  0.000  -0.000  -6.405  -0.000   0.000   0.000  -0.000  -6.542
  0.000  -0.000  -0.000  -6.410   0.001   0.000  -0.000  -0.000
 -0.000  -0.001   0.000   0.001  -6.390  -0.000  -0.000   0.000
 -6.536   0.000   0.000   0.000  -0.000  -6.642   0.000   0.000
  0.000  -6.546  -0.000  -0.000  -0.000   0.000  -6.652  -0.000
  0.000  -0.000  -6.542  -0.000   0.000   0.000  -0.000  -6.648
  0.000  -0.000  -0.000  -6.547   0.001   0.000  -0.000  -0.000
 -0.000  -0.000   0.000   0.001  -6.527  -0.000  -0.000   0.000
  0.001   0.000  -0.001   0.000   0.000   0.001   0.000  -0.001
  0.001   0.000  -0.001   0.000   0.000   0.001   0.000  -0.001
 -0.001  -0.001  -0.001   0.000  -0.002  -0.001  -0.001  -0.001
  0.000   0.002  -0.001  -0.001   0.000   0.000   0.002  -0.001
  0.002   0.000   0.001  -0.001  -0.002   0.002   0.000   0.001
 -0.002  -0.001  -0.001   0.000  -0.002  -0.002  -0.001  -0.001
  0.000   0.002  -0.001  -0.002   0.000   0.000   0.002  -0.001
  0.002   0.000   0.001  -0.001  -0.002   0.002   0.000   0.001
 total augmentation occupancy for first ion, spin component:           1
  2.274   0.011  -0.058   0.007  -0.002  -0.304  -0.013   0.060  -0.010   0.002  -0.079   0.017   0.012   0.001  -0.015  -0.001
  0.011   2.210  -0.030   0.002  -0.077  -0.013  -0.231   0.023  -0.007   0.073  -0.056   0.010   0.009   0.000   0.001  -0.001
 -0.058  -0.030   3.708  -0.030  -0.002   0.060   0.023  -1.555   0.023   0.002   0.377  -0.045  -0.009  -0.045   0.008   0.000
  0.007   0.002  -0.030   2.210   0.072  -0.010  -0.007   0.023  -0.231  -0.068  -0.054   0.010   0.000  -0.001   0.015  -0.000
 -0.002  -0.077  -0.002   0.072   4.541   0.002   0.073   0.002  -0.068  -2.351  -0.005   0.001  -0.034   0.003  -0.026   0.001
 -0.304  -0.013   0.060  -0.010   0.002   0.316   0.014  -0.061   0.011  -0.002   0.069  -0.017  -0.010  -0.001   0.012   0.001
 -0.013  -0.231   0.023  -0.007   0.073   0.014   0.233  -0.017   0.010  -0.070   0.051  -0.011  -0.007  -0.001  -0.001   0.000
  0.060   0.023  -1.555   0.023   0.002  -0.061  -0.017   1.405  -0.017  -0.002  -0.343   0.061   0.009   0.040  -0.007  -0.001
 -0.010  -0.007   0.023  -0.231  -0.068   0.011   0.010  -0.017   0.234   0.065   0.049  -0.011  -0.000   0.002  -0.011   0.000
  0.002   0.073   0.002  -0.068  -2.351  -0.002  -0.070  -0.002   0.065   2.166   0.004  -0.001   0.032  -0.003   0.024  -0.002
 -0.079  -0.056   0.377  -0.054  -0.005   0.069   0.051  -0.343   0.049   0.004   1.420  -0.303  -0.011   0.008   0.008   0.001
  0.017   0.010  -0.045   0.010   0.001  -0.017  -0.011   0.061  -0.011  -0.001  -0.303   0.069   0.002  -0.002  -0.001  -0.000
  0.012   0.009  -0.009   0.000  -0.034  -0.010  -0.007   0.009  -0.000   0.032  -0.011   0.002   0.100   0.003   0.004  -0.007
  0.001   0.000  -0.045  -0.001   0.003  -0.001  -0.001   0.040   0.002  -0.003   0.008  -0.002   0.003   0.061   0.003  -0.000
 -0.015   0.001   0.008   0.015  -0.026   0.012  -0.001  -0.007  -0.011   0.024   0.008  -0.001   0.004   0.003   0.100  -0.000
 -0.001  -0.001   0.000  -0.000   0.001   0.001   0.000  -0.001   0.000  -0.002   0.001  -0.000  -0.007  -0.000  -0.000   0.001
 -0.000   0.001   0.002  -0.001  -0.000   0.000   0.000  -0.003  -0.000   0.000  -0.001   0.000  -0.000  -0.004  -0.000   0.000
  0.002  -0.000  -0.000  -0.001   0.001  -0.001   0.000   0.000   0.001  -0.001  -0.001   0.000  -0.000  -0.000  -0.007   0.000


------------------------ aborting loop because EDIFF is reached ----------------------------------------


 


 total charge     
 
# of ion       s       p       d       tot
------------------------------------------
    1        0.239   0.147   9.323   9.709
    2        0.241   0.151   9.320   9.713
    3        0.241   0.151   9.320   9.712
    4        0.241   0.151   9.320   9.712
    5        0.241   0.152   9.320   9.713
    6        0.252   0.158   9.313   9.723
    7        0.252   0.158   9.313   9.723
    8        0.238   0.147   9.323   9.708
    9        1.833   1.402   0.135   3.370
   10        1.834   1.402   0.139   3.375
   11        1.835   1.398   0.139   3.373
   12        1.835   1.398   0.139   3.373
   13        1.834   1.402   0.139   3.374
   14        1.834   1.402   0.138   3.374
   15        1.834   1.401   0.138   3.373
   16        1.833   1.402   0.136   3.371
   17        1.513   2.747   0.016   4.276
   18        1.513   2.747   0.016   4.276
   19        1.517   2.746   0.013   4.276
   20        1.516   2.744   0.015   4.274
   21        1.516   2.744   0.015   4.274
   22        1.517   2.746   0.013   4.276
   23        1.515   2.743   0.015   4.272
   24        1.514   2.743   0.015   4.272
   25        1.516   2.744   0.015   4.274
   26        1.517   2.746   0.013   4.276
   27        1.513   2.748   0.016   4.277
   28        1.513   2.748   0.016   4.277
   29        1.515   2.743   0.015   4.272
   30        1.514   2.743   0.015   4.272
   31        1.517   2.745   0.013   4.275
   32        1.516   2.743   0.015   4.274
   33        1.518   2.742   0.013   4.273
   34        1.518   2.743   0.012   4.273
   35        1.514   2.742   0.017   4.274
   36        1.518   2.742   0.012   4.273
   37        1.518   2.742   0.012   4.272
   38        1.514   2.742   0.017   4.274
   39        1.518   2.742   0.011   4.271
   40        1.518   2.742   0.011   4.271
   41        1.519   2.742   0.012   4.273
   42        1.514   2.743   0.017   4.274
   43        1.518   2.742   0.013   4.273
   44        1.518   2.743   0.012   4.273
   45        1.518   2.742   0.011   4.272
   46        1.518   2.742   0.011   4.272
   47        1.514   2.742   0.017   4.274
   48        1.518   2.742   0.012   4.273
--------------------------------------------------
tot         65.136 100.219  76.097 241.453
 


--------------------------------------------------------------------------------------------------------



  FREE ENERGIE OF THE ION-ELECTRON SYSTEM (eV)
  ---------------------------------------------------
  free  energy   TOTEN  =      -119.96708633 eV

  energy  without entropy=     -119.96708633  energy(sigma->0) =     -119.96708633
 


--------------------------------------------------------------------------------------------------------




--------------------------------------------------------------------------------------------------------


 writing wavefunctions
     LOOP+:  cpu time  109.5152: real time  109.5827
    4ORBIT:  cpu time    0.0000: real time    0.0000
 


 total charge     
 
# of ion       s       p       d       tot
------------------------------------------
    1        0.239   0.147   9.323   9.709
    2        0.241   0.151   9.320   9.713
    3        0.241   0.151   9.320   9.712
    4        0.241   0.151   9.320   9.712
    5        0.241   0.152   9.320   9.713
    6        0.252   0.158   9.313   9.723
    7        0.252   0.158   9.313   9.723
    8        0.238   0.147   9.323   9.708
    9        1.833   1.402   0.135   3.370
   10        1.834   1.402   0.139   3.375
   11        1.835   1.398   0.139   3.373
   12        1.835   1.398   0.139   3.373
   13        1.834   1.402   0.139   3.374
   14        1.834   1.402   0.138   3.374
   15        1.834   1.401   0.138   3.373
   16        1.833   1.402   0.136   3.371
   17        1.513   2.747   0.016   4.276
   18        1.513   2.747   0.016   4.276
   19        1.517   2.746   0.013   4.276
   20        1.516   2.744   0.015   4.274
   21        1.516   2.744   0.015   4.274
   22        1.517   2.746   0.013   4.276
   23        1.515   2.743   0.015   4.272
   24        1.514   2.743   0.015   4.272
   25        1.516   2.744   0.015   4.274
   26        1.517   2.746   0.013   4.276
   27        1.513   2.748   0.016   4.277
   28        1.513   2.748   0.016   4.277
   29        1.515   2.743   0.015   4.272
   30        1.514   2.743   0.015   4.272
   31        1.517   2.745   0.013   4.275
   32        1.516   2.743   0.015   4.274
   33        1.518   2.742   0.013   4.273
   34        1.518   2.743   0.012   4.273
   35        1.514   2.742   0.017   4.274
   36        1.518   2.742   0.012   4.273
   37        1.518   2.742   0.012   4.272
   38        1.514   2.742   0.017   4.274
   39        1.518   2.742   0.011   4.271
   40        1.518   2.742   0.011   4.271
   41        1.519   2.742   0.012   4.273
   42        1.514   2.743   0.017   4.274
   43        1.518   2.742   0.013   4.273
   44        1.518   2.743   0.012   4.273
   45        1.518   2.742   0.011   4.272
   46        1.518   2.742   0.011   4.272
   47        1.514   2.742   0.017   4.274
   48        1.518   2.742   0.012   4.273
--------------------------------------------------
tot         65.136 100.219  76.097 241.453
 
 BZINTS: Fermi energy:    2.095236;  352.000000 electrons
         Band energy:-0.746914E+03;  BLOECHL correction:    0.000000

 total amount of memory used by VASP MPI-rank0  2761676. kBytes
=======================================================================

   base      :      30000. kBytes
   nonl-proj :     301348. kBytes
   fftplans  :      34720. kBytes
   grid      :      70000. kBytes
   one-center:        746. kBytes
   wavefun   :    2324862. kBytes
 
  
  
 General timing and accounting informations for this job:
 ========================================================
  
                  Total CPU time used (sec):      149.219
                            User time (sec):      144.142
                          System time (sec):        5.078
                         Elapsed time (sec):      151.542
  
                   Maximum memory used (kb):     4316304.
                   Average memory used (kb):           0.
  
                          Minor page faults:       414550
                          Major page faults:            7
                 Voluntary context switches:         2480
