 vasp.6.1.0 28Jan20 (build Jan 13 2021 21:44:47) complex                        
  
 executed on             LinuxIFC date 2021.09.12  19:23:39
 running on    9 total cores
 distrk:  each k-point on    1 cores,    9 groups
 distr:  one band on NCORE=   1 cores,    1 groups


--------------------------------------------------------------------------------------------------------


 INCAR:
 POTCAR:    PAW_PBE Ag 02Apr2005                  
 POTCAR:    PAW_PBE Bi 08Apr2002                  
 POTCAR:    PAW_PBE I 08Apr2002                   
 -----------------------------------------------------------------------------
|                                                                             |
|           W    W    AA    RRRRR   N    N  II  N    N   GGGG   !!!           |
|           W    W   A  A   R    R  NN   N  II  NN   N  G    G  !!!           |
|           W    W  A    A  R    R  N N  N  II  N N  N  G       !!!           |
|           W WW W  AAAAAA  RRRRR   N  N N  II  N  N N  G  GGG   !            |
|           WW  WW  A    A  R   R   N   NN  II  N   NN  G    G                |
|           W    W  A    A  R    R  N    N  II  N    N   GGGG   !!!           |
|                                                                             |
|     For optimal performance we recommend to set                             |
|       NCORE = 4 - approx SQRT(number of cores).                             |
|     NCORE specifies how many cores store one orbital (NPAR=cpu/NCORE).      |
|     This setting can greatly improve the performance of VASP for DFT.       |
|     The default, NCORE=1 might be grossly inefficient on modern             |
|     multi-core architectures or massively parallel machines. Do your        |
|     own testing!!!!                                                         |
|     Unfortunately you need to use the default for GW and RPA                |
|     calculations (for HF NCORE is supported but not extensively tested      |
|     yet).                                                                   |
|                                                                             |
 -----------------------------------------------------------------------------

 POTCAR:    PAW_PBE Ag 02Apr2005                  
   VRHFIN =Ag : s1 d10                                                                              
   LEXCH  = PE                                                                                      
   EATOM  =  1037.2675 eV,   76.2370 Ry                                                             
                                                                                                    
   TITEL  = PAW_PBE Ag 02Apr2005                                                                    
   LULTRA =        F    use ultrasoft PP ?                                                          
   IUNSCR =        1    unscreen: 0-lin 1-nonlin 2-no                                               
   RPACOR =    2.000    partial core radius                                                         
   POMASS =  107.868; ZVAL   =   11.000    mass and valenz                                          
   RCORE  =    2.500    outmost cutoff radius                                                       
   RWIGS  =    2.840; RWIGS  =    1.503    wigner-seitz radius (au A)                               
   ENMAX  =  249.844; ENMIN  =  187.383 eV                                                          
   ICORE  =        3    local potential                                                             
   LCOR   =        T    correct aug charges                                                         
   LPAW   =        T    paw PP                                                                      
   EAUG   =  412.496                                                                                
   DEXC   =    0.000                                                                                
   RMAX   =    2.560    core radius for proj-oper                                                   
   RAUG   =    1.300    factor for augmentation sphere                                              
   RDEP   =    2.576    radius for radial grids                                                     
   RDEPT  =    2.072    core radius for aug-charge                                                  
                                                                                                    
   Atomic configuration                                                                             
   12 entries                                                                                       
     n  l   j            E        occ.                                                              
     1  0  0.50    -25324.9161   2.0000                                                             
     2  0  0.50     -3728.5341   2.0000                                                             
     2  1  1.50     -3344.0404   6.0000                                                             
     3  0  0.50      -683.5581   2.0000                                                             
     3  1  1.50      -557.3225   6.0000                                                             
     3  2  2.50      -358.3853  10.0000                                                             
     4  0  0.50       -95.0341   2.0000                                                             
     4  1  1.50       -58.5511   6.0000                                                             
     4  2  2.50        -7.4440  10.0000                                                             
     5  0  0.50        -4.4045   1.0000                                                             
     5  1  0.50        -1.3606   0.0000                                                             
     4  3  2.50        -1.3606   0.0000                                                             
   Description                                                                                      
     l       E           TYP  RCUT    TYP  RCUT                                                     
     2     -7.4439781     23  2.400                                                                 
     2     -8.8045607     23  2.400                                                                 
     0     -4.4044681     23  2.400                                                                 
     0      1.9520038     23  2.400                                                                 
     1     -1.3605826     23  2.500                                                                 
     1     27.2116520     23  2.500                                                                 
     3     -4.0817478     23  2.400                                                                 
  local pseudopotential read in
  partial core-charges read in
  partial kinetic energy density read in
  atomic valenz-charges read in
  non local Contribution for L=           2  read in
    real space projection operators read in
  non local Contribution for L=           2  read in
    real space projection operators read in
  non local Contribution for L=           0  read in
    real space projection operators read in
  non local Contribution for L=           0  read in
    real space projection operators read in
  non local Contribution for L=           1  read in
    real space projection operators read in
  non local Contribution for L=           1  read in
    real space projection operators read in
    PAW grid and wavefunctions read in
 
   number of l-projection  operators is LMAX  =           6
   number of lm-projection operators is LMMAX =          18
 
 POTCAR:    PAW_PBE Bi 08Apr2002                  
   VRHFIN =Bi:                                                                                      
   LEXCH  = PE                                                                                      
   EATOM  =   150.8133 eV,   11.0845 Ry                                                             
                                                                                                    
   TITEL  = PAW_PBE Bi 08Apr2002                                                                    
   LULTRA =        F    use ultrasoft PP ?                                                          
   IUNSCR =        1    unscreen: 0-lin 1-nonlin 2-no                                               
   RPACOR =    2.200    partial core radius                                                         
   POMASS =  208.980; ZVAL   =    5.000    mass and valenz                                          
   RCORE  =    3.000    outmost cutoff radius                                                       
   RWIGS  =    3.090; RWIGS  =    1.635    wigner-seitz radius (au A)                               
   ENMAX  =  105.037; ENMIN  =   78.777 eV                                                          
   ICORE  =        3    local potential                                                             
   LCOR   =        T    correct aug charges                                                         
   LPAW   =        T    paw PP                                                                      
   EAUG   =  265.427                                                                                
   DEXC   =    0.000                                                                                
   RMAX   =    3.067    core radius for proj-oper                                                   
   RAUG   =    1.300    factor for augmentation sphere                                              
   RDEP   =    3.012    radius for radial grids                                                     
   RDEPT  =    2.604    core radius for aug-charge                                                  
                                                                                                    
   Atomic configuration                                                                             
   17 entries                                                                                       
     n  l   j            E        occ.                                                              
     1  0  0.50    -90639.6582   2.0000                                                             
     2  0  0.50    -16282.4667   2.0000                                                             
     2  1  1.50    -13922.8287   6.0000                                                             
     3  0  0.50     -3930.4763   2.0000                                                             
     3  1  1.50     -3256.7013   6.0000                                                             
     3  2  2.50     -2581.6169  10.0000                                                             
     4  0  0.50      -902.2614   2.0000                                                             
     4  1  1.50      -681.5915   6.0000                                                             
     4  2  2.50      -429.8249  10.0000                                                             
     4  3  3.50      -152.6004  14.0000                                                             
     5  0  0.50      -157.7156   2.0000                                                             
     5  1  1.50       -95.8054   6.0000                                                             
     5  2  2.50       -27.0806  10.0000                                                             
     6  0  0.50       -14.4732   2.0000                                                             
     6  1  1.50        -4.5702   3.0000                                                             
     6  2  2.50        -2.7212   0.0000                                                             
     5  3  2.50        -2.7212   0.0000                                                             
   Description                                                                                      
     l       E           TYP  RCUT    TYP  RCUT                                                     
     0    -14.4732299     23  3.000                                                                 
     0    -12.2452434     23  3.000                                                                 
     1     -4.5701666     23  3.000                                                                 
     1    -13.6058260     23  3.000                                                                 
     2     -2.7211652     23  3.000                                                                 
     3     -1.3605826      7  3.000                                                                 
  local pseudopotential read in
  partial core-charges read in
  partial kinetic energy density read in
  kinetic energy density of atom read in
  atomic valenz-charges read in
  non local Contribution for L=           0  read in
    real space projection operators read in
  non local Contribution for L=           0  read in
    real space projection operators read in
  non local Contribution for L=           1  read in
    real space projection operators read in
  non local Contribution for L=           1  read in
    real space projection operators read in
  non local Contribution for L=           2  read in
    real space projection operators read in
    PAW grid and wavefunctions read in
 
   number of l-projection  operators is LMAX  =           5
   number of lm-projection operators is LMMAX =          13
 
 POTCAR:    PAW_PBE I 08Apr2002                   
   VRHFIN =I : s2p5                                                                                 
   LEXCH  = PE                                                                                      
   EATOM  =   315.8678 eV,   23.2156 Ry                                                             
                                                                                                    
   TITEL  = PAW_PBE I 08Apr2002                                                                     
   LULTRA =        F    use ultrasoft PP ?                                                          
   IUNSCR =        1    unscreen: 0-lin 1-nonlin 2-no                                               
   RPACOR =    2.200    partial core radius                                                         
   POMASS =  126.904; ZVAL   =    7.000    mass and valenz                                          
   RCORE  =    2.300    outmost cutoff radius                                                       
   RWIGS  =    2.810; RWIGS  =    1.487    wigner-seitz radius (au A)                               
   ENMAX  =  175.647; ENMIN  =  131.735 eV                                                          
   ICORE  =        3    local potential                                                             
   LCOR   =        T    correct aug charges                                                         
   LPAW   =        T    paw PP                                                                      
   EAUG   =  370.139                                                                                
   DEXC   =    0.000                                                                                
   RMAX   =    2.359    core radius for proj-oper                                                   
   RAUG   =    1.300    factor for augmentation sphere                                              
   RDEP   =    2.392    radius for radial grids                                                     
   RDEPT  =    2.170    core radius for aug-charge                                                  
                                                                                                    
   Atomic configuration                                                                             
   13 entries                                                                                       
     n  l   j            E        occ.                                                              
     1  0  0.50    -32976.3739   2.0000                                                             
     2  0  0.50     -5094.5933   2.0000                                                             
     2  1  1.50     -4572.0131   6.0000                                                             
     3  0  0.50     -1028.2813   2.0000                                                             
     3  1  1.50      -859.0250   6.0000                                                             
     3  2  2.50      -605.7620  10.0000                                                             
     4  0  0.50      -180.5540   2.0000                                                             
     4  1  1.50      -127.5306   6.0000                                                             
     4  2  2.50       -50.2720  10.0000                                                             
     5  0  0.50       -17.4058   2.0000                                                             
     5  1  0.50        -7.0851   5.0000                                                             
     5  2  1.50        -7.0750   0.0000                                                             
     4  3  2.50        -7.0750   0.0000                                                             
   Description                                                                                      
     l       E           TYP  RCUT    TYP  RCUT                                                     
     0    -17.4058016     23  2.300                                                                 
     0    -18.7663842     23  2.300                                                                 
     1     -7.0850686     23  2.300                                                                 
     1     -4.2150896     23  2.300                                                                 
     2     -7.0750295     23  2.300                                                                 
     3     -1.3605826     23  2.300                                                                 
  local pseudopotential read in
  partial core-charges read in
  partial kinetic energy density read in
  atomic valenz-charges read in
  non local Contribution for L=           0  read in
    real space projection operators read in
  non local Contribution for L=           0  read in
    real space projection operators read in
  non local Contribution for L=           1  read in
    real space projection operators read in
  non local Contribution for L=           1  read in
    real space projection operators read in
  non local Contribution for L=           2  read in
    real space projection operators read in
    PAW grid and wavefunctions read in
 
   number of l-projection  operators is LMAX  =           5
   number of lm-projection operators is LMMAX =          13
 
 -----------------------------------------------------------------------------
|                                                                             |
|               ----> ADVICE to this user running VASP <----                  |
|                                                                             |
|     You have a (more or less) 'large supercell' and for larger cells it     |
|     might be more efficient to use real-space projection operators.         |
|     Therefore, try LREAL= Auto in the INCAR file.                           |
|     Mind: For very accurate calculation, you might also keep the            |
|     reciprocal projection scheme (i.e. LREAL=.FALSE.).                      |
|                                                                             |
 -----------------------------------------------------------------------------

  PAW_PBE Ag 02Apr2005                  :
 energy of atom  1       EATOM=-1037.2675
 kinetic energy error for atom=    0.0686 (will be added to EATOM!!)
  PAW_PBE Bi 08Apr2002                  :
 energy of atom  2       EATOM= -150.8133
 kinetic energy error for atom=    0.0004 (will be added to EATOM!!)
  PAW_PBE I 08Apr2002                   :
 energy of atom  3       EATOM= -315.8678
 kinetic energy error for atom=    0.0044 (will be added to EATOM!!)
 
 
 POSCAR: Generation Seed Number
  positions in direct lattice
  velocities in cartesian coordinates
 exchange correlation table for  LEXCH =        8
   RHO(1)=    0.500       N(1)  =     2000
   RHO(2)=  100.500       N(2)  =     4000
 


--------------------------------------------------------------------------------------------------------


 ion  position               nearest neighbor table
   1  0.997  0.002  0.004-  21 3.02  25 3.03  27 3.07  17 3.08  33 3.21  34 3.33
   2  0.240  0.245  0.977-  25 2.94  42 2.99  17 3.07  19 3.14  29 3.16  41 3.56
   3  0.755  0.760  0.023-  21 2.94  47 2.99  27 3.07  23 3.14  31 3.15  48 3.56
   4  0.996  0.490  0.523-  26 2.94  36 2.99  24 3.07  20 3.13  28 3.17  35 3.56
   5  0.512  0.004  0.477-  22 2.94  37 2.99  30 3.07  32 3.11  18 3.19  38 3.55
   6  0.524  0.775  0.249-  31 2.95  32 2.97  37 2.97  47 2.97
   7  0.225  0.476  0.749-  20 2.96  19 2.97  36 2.97  42 2.97
   8  0.753  0.248  0.499-  22 3.03  26 3.03  30 3.07  24 3.07  45 3.26  46 3.29
   9  0.497  0.503  1.000-  19 3.07  31 3.07  40 3.14  39 3.14  29 3.18  23 3.19
  10  1.000  0.250  0.250-  26 3.11  25 3.11  45 3.11  33 3.12  35 3.14  41 3.14
  11  0.999  0.749  0.753-  27 3.03  36 3.06  48 3.12  44 3.14  28 3.20  34 3.20
  12  0.252  0.002  0.247-  17 3.03  37 3.05  41 3.12  43 3.14  18 3.19  33 3.21
  13  0.751  0.000  0.750-  34 3.11  46 3.11  22 3.11  21 3.11  48 3.14  38 3.15
  14  0.751  0.502  0.253-  24 3.03  47 3.05  35 3.13  39 3.14  23 3.20  45 3.21
  15  0.499  0.248  0.746-  30 3.03  42 3.06  38 3.12  40 3.15  29 3.20  46 3.20
  16  0.252  0.748  0.500-  20 3.07  32 3.07  44 3.14  43 3.14  18 3.18  28 3.18
  17  0.239  0.005  0.008-  12 3.03   2 3.07   1 3.08
  18  0.262  0.998  0.498-  16 3.18   5 3.19  12 3.19
  19  0.257  0.491  0.980-   7 2.97   9 3.07   2 3.14
  20  0.241  0.508  0.519-   7 2.96  16 3.07   4 3.13
  21  0.760  0.989  0.995-   3 2.94   1 3.02  13 3.11
  22  0.741  0.010  0.506-   5 2.94   8 3.03  13 3.11
  23  0.748  0.513  0.002-   3 3.14   9 3.19  14 3.20
  24  0.756  0.489  0.492-  14 3.03   4 3.07   8 3.07
  25  0.010  0.240  0.005-   2 2.94   1 3.03  10 3.11
  26  0.990  0.260  0.494-   4 2.94   8 3.03  10 3.11
  27  0.995  0.761  0.992-  11 3.03   1 3.07   3 3.07
  28  0.002  0.738  0.502-   4 3.17  16 3.18  11 3.20
  29  0.487  0.252  0.998-   2 3.16   9 3.18  15 3.20
  30  0.511  0.244  0.508-  15 3.03   8 3.07   5 3.07
  31  0.508  0.743  0.019-   6 2.95   9 3.07   3 3.15
  32  0.493  0.760  0.480-   6 2.97  16 3.07   5 3.11
  33  0.999  0.005  0.257-  10 3.12  12 3.21   1 3.21
  34  0.995  0.001  0.743-  13 3.11  11 3.20   1 3.33
  35  0.997  0.497  0.243-  14 3.13  10 3.14   4 3.56
  36  0.994  0.509  0.757-   7 2.97   4 2.99  11 3.06
  37  0.492  0.007  0.243-   6 2.97   5 2.99  12 3.05
  38  0.503  0.003  0.756-  15 3.12  13 3.15   5 3.55
  39  0.504  0.491  0.246-   9 3.14  14 3.14
  40  0.509  0.496  0.753-   9 3.14  15 3.15
  41  0.247  0.247  0.257-  12 3.12  10 3.14   2 3.56
  42  0.258  0.245  0.742-   7 2.97   2 2.99  15 3.06
  43  0.241  0.755  0.253-  16 3.14  12 3.14
  44  0.246  0.759  0.746-  16 3.14  11 3.14
  45  0.755  0.250  0.242-  10 3.11  14 3.21   8 3.26
  46  0.750  0.245  0.758-  13 3.11  15 3.20   8 3.29
  47  0.755  0.742  0.258-   6 2.97   3 2.99  14 3.05
  48  0.753  0.753  0.743-  11 3.12  13 3.14   3 3.56
 
 -----------------------------------------------------------------------------
|                                                                             |
|           W    W    AA    RRRRR   N    N  II  N    N   GGGG   !!!           |
|           W    W   A  A   R    R  NN   N  II  NN   N  G    G  !!!           |
|           W    W  A    A  R    R  N N  N  II  N N  N  G       !!!           |
|           W WW W  AAAAAA  RRRRR   N  N N  II  N  N N  G  GGG   !            |
|           WW  WW  A    A  R   R   N   NN  II  N   NN  G    G                |
|           W    W  A    A  R    R  N    N  II  N    N   GGGG   !!!           |
|                                                                             |
|     The determination of the symmetry of your systems shows a strong        |
|     dependence on the tolerance parameter SYMPREC. This is often the        |
|     result of "noise" in the structural parameters (lattice vectors         |
|     and/or ionic positions). Set NWRITE=3 for more details.                 |
|                                                                             |
 -----------------------------------------------------------------------------

  LATTYP: Found a base centered monoclinic cell.
 ALAT       =    31.1286713946
 B/A-ratio  =     0.5773947519
 C/A-ratio  =     0.7071410518
 COS(beta)  =    -0.9427837908
  
  Lattice vectors:
  
 A1 = ( -12.7077814648,  -0.0003338749,  12.7092444477)
 A2 = ( -12.7081359908,  12.7087247179,  -0.0001089591)
 A3 = (  12.7069450541, -12.7095664485, -12.7100166740)


Analysis of symmetry for initial positions (statically):
=====================================================================
 Subroutine PRICEL returns:
 Original cell was already a primitive cell.
 

 Routine SETGRP: Setting up the symmetry group for a 
 base centered monoclinic supercell.


 Subroutine GETGRP returns: Found  1 space group operations
 (whereof  1 operations were pure point group operations)
 out of a pool of  4 trial point group operations.


The static configuration has the point symmetry C_1 .


Analysis of symmetry for dynamics (positions and initial velocities):
=====================================================================
 Subroutine PRICEL returns:
 Original cell was already a primitive cell.
 

 Routine SETGRP: Setting up the symmetry group for a 
 base centered monoclinic supercell.


 Subroutine GETGRP returns: Found  1 space group operations
 (whereof  1 operations were pure point group operations)
 out of a pool of  4 trial point group operations.


The dynamic configuration has the point symmetry C_1 .


 Subroutine INISYM returns: Found  1 space group operations
 (whereof  1 operations are pure point group operations),
 and found     1 'primitive' translations


----------------------------------------------------------------------------------------

                                     Primitive cell                                     

  volume of cell :    2053.0637

  direct lattice vectors                    reciprocal lattice vectors
    12.708972402  0.001175606  0.000881185     0.078684569 -0.000005178 -0.000007372
     0.000836411 12.709900323  0.000772226    -0.000007278  0.078678824 -0.000005210
     0.001190937  0.000841731 12.710125633    -0.000005455 -0.000004780  0.078677429

  length of vectors
    12.708972486 12.709900374 12.710125717     0.078684569  0.078678824  0.078677430

  position of ions in fractional coordinates (direct lattice)
     0.997124402  0.001931087  0.004453877
     0.239568573  0.244794132  0.976536246
     0.755090833  0.759633255  0.022707660
     0.995526863  0.489670578  0.522861180
     0.511567873  0.004143771  0.477113873
     0.523879414  0.775132527  0.249077952
     0.225122557  0.475762506  0.748907662
     0.752527769  0.247601625  0.498812198
     0.497150728  0.502598083  0.999636971
     0.999855650  0.250123785  0.249846239
     0.998862163  0.749004567  0.753308991
     0.251632350  0.001618311  0.246578691
     0.750753241  0.000438947  0.749989011
     0.751260569  0.501858886  0.253389587
     0.498596455  0.248350303  0.746365043
     0.252185040  0.748255083  0.499797302
     0.239194225  0.005433174  0.008222466
     0.261717690  0.998346467  0.497588234
     0.256890437  0.491222643  0.979538113
     0.241048458  0.507509149  0.518785935
     0.759950449  0.989215851  0.994524946
     0.741047174  0.009956560  0.505506701
     0.747750574  0.513400972  0.002184332
     0.755989439  0.489384198  0.491631899
     0.010145589  0.239681785  0.005378422
     0.990251901  0.259992406  0.494239678
     0.994983510  0.760923201  0.991628528
     0.002078515  0.737814170  0.502032188
     0.487059280  0.252237992  0.997503610
     0.511163877  0.243803150  0.508023499
     0.507948232  0.743062899  0.019408398
     0.492919799  0.759824057  0.479933054
     0.999364675  0.004996399  0.257151778
     0.995128972  0.000567174  0.742761918
     0.997058307  0.497014739  0.243192262
     0.994010471  0.508502729  0.756959260
     0.491720995  0.006529737  0.242849346
     0.503179654  0.002868700  0.756201224
     0.504339600  0.490971995  0.246306807
     0.509267319  0.495500329  0.753260837
     0.246872755  0.247218894  0.256837497
     0.258231828  0.244589720  0.741987379
     0.241150974  0.754628770  0.253266815
     0.245958432  0.759068742  0.746236895
     0.755037005  0.249918014  0.242012075
     0.750373424  0.245095485  0.757819633
     0.755290441  0.742048667  0.257519277
     0.753308044  0.753297640  0.743020307

  ion indices of the primitive-cell ions
   primitive index   ion index
                 1           1
                 2           2
                 3           3
                 4           4
                 5           5
                 6           6
                 7           7
                 8           8
                 9           9
                10          10
                11          11
                12          12
                13          13
                14          14
                15          15
                16          16
                17          17
                18          18
                19          19
                20          20
                21          21
                22          22
                23          23
                24          24
                25          25
                26          26
                27          27
                28          28
                29          29
                30          30
                31          31
                32          32
                33          33
                34          34
                35          35
                36          36
                37          37
                38          38
                39          39
                40          40
                41          41
                42          42
                43          43
                44          44
                45          45
                46          46
                47          47
                48          48

----------------------------------------------------------------------------------------

 
 
 KPOINTS: agbii                                   

Automatic generation of k-mesh.
Space group operators:
 irot       det(A)        alpha          n_x          n_y          n_z        tau_x        tau_y        tau_z
    1     1.000000     0.000001     1.000000     0.000000     0.000000     0.000000     0.000000     0.000000
 TETIRR: Found    192 inequivalent tetrahedra from      384
 
 Subroutine IBZKPT returns following result:
 ===========================================
 
 Found     36 irreducible k-points:
 
 Following reciprocal coordinates:
            Coordinates               Weight
  0.000000  0.000000  0.000000      1.000000
  0.250000  0.000000  0.000000      2.000000
  0.500000  0.000000  0.000000      1.000000
 -0.000000  0.250000  0.000000      2.000000
 -0.000000  0.000000 -0.250000      2.000000
  0.250000  0.250000  0.000000      2.000000
 -0.250000 -0.000000 -0.250000      2.000000
  0.500000  0.250000  0.000000      2.000000
  0.500000 -0.000000 -0.250000      2.000000
 -0.250000  0.250000  0.000000      2.000000
  0.250000 -0.000000 -0.250000      2.000000
 -0.000000  0.500000  0.000000      1.000000
  0.000000 -0.000000  0.500000      1.000000
  0.250000  0.500000  0.000000      2.000000
 -0.250000  0.000000  0.500000      2.000000
  0.500000  0.500000  0.000000      1.000000
  0.500000 -0.000000  0.500000      1.000000
 -0.000000  0.250000  0.250000      2.000000
  0.250000  0.250000  0.250000      2.000000
  0.500000  0.250000  0.250000      2.000000
 -0.250000  0.250000  0.250000      2.000000
  0.000000  0.500000  0.250000      2.000000
  0.000000 -0.250000  0.500000      2.000000
  0.250000  0.500000  0.250000      2.000000
 -0.250000 -0.250000  0.500000      2.000000
  0.500000  0.500000  0.250000      2.000000
  0.500000 -0.250000  0.500000      2.000000
 -0.250000  0.500000  0.250000      2.000000
  0.250000 -0.250000  0.500000      2.000000
  0.000000 -0.250000  0.250000      2.000000
  0.250000 -0.250000  0.250000      2.000000
 -0.250000 -0.250000  0.250000      2.000000
  0.500000 -0.250000  0.250000      2.000000
  0.000000  0.500000  0.500000      1.000000
  0.250000  0.500000  0.500000      2.000000
  0.500000  0.500000  0.500000      1.000000
 
 Following cartesian coordinates:
            Coordinates               Weight
  0.000000  0.000000  0.000000      1.000000
  0.019671 -0.000001 -0.000002      2.000000
  0.039342 -0.000003 -0.000004      1.000000
 -0.000002  0.019670 -0.000001      2.000000
  0.000001  0.000001 -0.019669      2.000000
  0.019669  0.019668 -0.000003      2.000000
 -0.019670  0.000002 -0.019668      2.000000
  0.039340  0.019667 -0.000005      2.000000
  0.039344 -0.000001 -0.019673      2.000000
 -0.019673  0.019671  0.000001      2.000000
  0.019673 -0.000000 -0.019671      2.000000
 -0.000004  0.039339 -0.000003      1.000000
 -0.000003 -0.000002  0.039339      1.000000
  0.019668  0.039338 -0.000004      2.000000
 -0.019674 -0.000001  0.039341      2.000000
  0.039339  0.039337 -0.000006      1.000000
  0.039340 -0.000005  0.039335      1.000000
 -0.000003  0.019669  0.019668      2.000000
  0.019668  0.019667  0.019666      2.000000
  0.039339  0.019666  0.019664      2.000000
 -0.019674  0.019670  0.019670      2.000000
 -0.000005  0.039338  0.019667      2.000000
 -0.000001 -0.019672  0.039340      2.000000
  0.019666  0.039337  0.019665      2.000000
 -0.019672 -0.019671  0.039342      2.000000
  0.039337  0.039336  0.019663      2.000000
  0.039341 -0.019675  0.039336      2.000000
 -0.019676  0.039340  0.019669      2.000000
  0.019670 -0.019673  0.039338      2.000000
  0.000000 -0.019671  0.019671      2.000000
  0.019672 -0.019672  0.019669      2.000000
 -0.019671 -0.019670  0.019673      2.000000
  0.039343 -0.019673  0.019667      2.000000
 -0.000006  0.039337  0.039336      1.000000
  0.019665  0.039336  0.039334      2.000000
  0.039336  0.039334  0.039332      1.000000
 


--------------------------------------------------------------------------------------------------------




 Dimension of arrays:
   k-points           NKPTS =     36   k-points in BZ     NKDIM =     36   number of bands    NBANDS=    211
   number of dos      NEDOS =   3000   number of ions     NIONS =     48
   non local maximal  LDIM  =      6   non local SUM 2l+1 LMDIM =     18
   total plane-waves  NPLWV = 125000
   max r-space proj   IRMAX =      1   max aug-charges    IRDMAX=   5999
   dimension x,y,z NGX =    50 NGY =   50 NGZ =   50
   dimension x,y,z NGXF=   100 NGYF=  100 NGZF=  100
   support grid    NGXF=   100 NGYF=  100 NGZF=  100
   ions per type =               8   8  32
   NGX,Y,Z   is equivalent  to a cutoff of   6.54,  6.54,  6.54 a.u.
   NGXF,Y,Z  is equivalent  to a cutoff of  13.08, 13.08, 13.08 a.u.

 SYSTEM =  unknown system                          
 POSCAR =  Generation Seed Number                  

 Startparameter for this run:
   NWRITE =      2    write-flag & timer
   PREC   = normal    normal or accurate (medium, high low for compatibility)
   ISTART =      1    job   : 0-new  1-cont  2-samecut
   ICHARG =      1    charge: 1-file 2-atom 10-const
   ISPIN  =      1    spin polarized calculation?
   LNONCOLLINEAR =      F non collinear calculations
   LSORBIT =      F    spin-orbit coupling
   INIWAV =      1    electr: 0-lowe 1-rand  2-diag
   LASPH  =      F    aspherical Exc in radial PAW
   METAGGA=      F    non-selfconsistent MetaGGA calc.

 Electronic Relaxation 1
   ENCUT  =  250.0 eV  18.37 Ry    4.29 a.u.  16.38 16.39 16.39*2*pi/ulx,y,z
   ENINI  =  250.0     initial cutoff
   ENAUG  =  412.5 eV  augmentation charge cutoff
   NELM   =     60;   NELMIN=  2; NELMDL=  0     # of ELM steps 
   EDIFF  = 0.1E-05   stopping-criterion for ELM
   LREAL  =      F    real-space projection
   NLSPLINE    = F    spline interpolate recip. space projectors
   LCOMPAT=      F    compatible to vasp.4.4
   GGA_COMPAT  = T    GGA compatible to vasp.4.4-vasp.4.6
   LMAXPAW     = -100 max onsite density
   LMAXMIX     =    4 max onsite mixed and CHGCAR
   VOSKOWN=      0    Vosko Wilk Nusair interpolation
   ROPT   =    0.00000   0.00000   0.00000
 Ionic relaxation
   EDIFFG = -.1E-01   stopping-criterion for IOM
   NSW    =      0    number of steps for IOM
   NBLOCK =      1;   KBLOCK =      1    inner block; outer block 
   IBRION =     -1    ionic relax: 0-MD 1-quasi-New 2-CG
   NFREE  =      0    steps in history (QN), initial steepest desc. (CG)
   ISIF   =     -1    stress and relaxation
   IWAVPR =     10    prediction:  0-non 1-charg 2-wave 3-comb
   ISYM   =      2    0-nonsym 1-usesym 2-fastsym
   LCORR  =      T    Harris-Foulkes like correction to forces

   POTIM  = 0.5000    time-step for ionic-motion
   TEIN   =    0.0    initial temperature
   TEBEG  =    0.0;   TEEND  =   0.0 temperature during run
   SMASS  =  -3.00    Nose mass-parameter (am)
   estimated Nose-frequenzy (Omega)   =  0.10E-29 period in steps = 0.13E+47 mass=  -0.369E-26a.u.
   SCALEE = 1.0000    scale energy and forces
   NPACO  =    256;   APACO  = 16.0  distance and # of slots for P.C.
   PSTRESS=    0.0 pullay stress

  Mass of Ions in am
   POMASS = 107.87208.98126.90
  Ionic Valenz
   ZVAL   =  11.00  5.00  7.00
  Atomic Wigner-Seitz radii
   RWIGS  =  -1.00 -1.00 -1.00
  virtual crystal weights 
   VCA    =   1.00  1.00  1.00
   NELECT =     352.0000    total number of electrons
   NUPDOWN=      -1.0000    fix difference up-down

 DOS related values:
   EMIN   =  10.00;   EMAX   =-10.00  energy-range for DOS
   EFERMI =   0.00
   ISMEAR =    -5;   SIGMA  =   0.20  broadening in eV -4-tet -1-fermi 0-gaus

 Electronic relaxation 2 (details)
   IALGO  =     38    algorithm
   LDIAG  =      T    sub-space diagonalisation (order eigenvalues)
   LSUBROT=      F    optimize rotation matrix (better conditioning)
   TURBO    =      0    0=normal 1=particle mesh
   IRESTART =      0    0=no restart 2=restart with 2 vectors
   NREBOOT  =      0    no. of reboots
   NMIN     =      0    reboot dimension
   EREF     =   0.00    reference energy to select bands
   IMIX   =      4    mixing-type and parameters
     AMIX     =   0.40;   BMIX     =  1.00
     AMIX_MAG =   1.60;   BMIX_MAG =  1.00
     AMIN     =   0.10
     WC   =   100.;   INIMIX=   1;  MIXPRE=   1;  MAXMIX= -45

 Intra band minimization:
   WEIMIN = 0.0000     energy-eigenvalue tresh-hold
   EBREAK =  0.12E-08  absolut break condition
   DEPER  =   0.30     relativ break condition  

   TIME   =   0.40     timestep for ELM

  volume/ion in A,a.u.               =      42.77       288.64
  Fermi-wavevector in a.u.,A,eV,Ry     =   0.909470  1.718649 11.253857  0.827135
  Thomas-Fermi vector in A             =   2.033518
 
 Write flags
   LWAVE        =      T    write WAVECAR
   LDOWNSAMPLE  =      F    k-point downsampling of WAVECAR
   LCHARG       =      T    write CHGCAR
   LVTOT        =      F    write LOCPOT, total local potential
   LVHAR        =      F    write LOCPOT, Hartree potential only
   LELF         =      F    write electronic localiz. function (ELF)
   LORBIT       =     10    0 simple, 1 ext, 2 COOP (PROOUT), +10 PAW based schemes


 Dipole corrections
   LMONO  =      F    monopole corrections only (constant potential shift)
   LDIPOL =      F    correct potential (dipole corrections)
   IDIPOL =      0    1-x, 2-y, 3-z, 4-all directions 
   EPSILON=  1.0000000 bulk dielectric constant

 Exchange correlation treatment:
   GGA     =    --    GGA type
   LEXCH   =     8    internal setting for exchange type
   VOSKOWN=      0    Vosko Wilk Nusair interpolation
   LHFCALC =     F    Hartree Fock is set to
   LHFONE  =     F    Hartree Fock one center treatment
   AEXX    =    0.0000 exact exchange contribution

 Linear response parameters
   LEPSILON=     F    determine dielectric tensor
   LRPA    =     F    only Hartree local field effects (RPA)
   LNABLA  =     F    use nabla operator in PAW spheres
   LVEL    =     F    velocity operator in full k-point grid
   LINTERFAST=   F  fast interpolation
   KINTER  =     0    interpolate to denser k-point grid
   CSHIFT  =0.1000    complex shift for real part using Kramers Kronig
   OMEGAMAX=  -1.0    maximum frequency
   DEG_THRESHOLD= 0.2000000E-02 threshold for treating states as degnerate
   RTIME   =   -0.100 relaxation time in fs
  (WPLASMAI=    0.000 imaginary part of plasma frequency in eV, 0.658/RTIME)
   DFIELD  = 0.0000000 0.0000000 0.0000000 field for delta impulse in time
 
 Orbital magnetization related:
   ORBITALMAG=     F  switch on orbital magnetization
   LCHIMAG   =     F  perturbation theory with respect to B field
   DQ        =  0.001000  dq finite difference perturbation B field
   LLRAUG    =     F  two centre corrections for induced B field



--------------------------------------------------------------------------------------------------------


 Static calculation
 charge density and potential will be updated during run
 non-spin polarized calculation
 Variant of blocked Davidson
 Davidson routine will perform the subspace rotation
 perform sub-space diagonalisation
    after iterative eigenvector-optimisation
 modified Broyden-mixing scheme, WC =      100.0
 initial mixing is a Kerker type mixing with AMIX =  0.4000 and BMIX =      1.0000
 Hartree-type preconditioning will be used
 using additional bands           35
 reciprocal scheme for non local part
 use partial core corrections
 calculate Harris-corrections to forces 
   (improved forces if not selfconsistent)
 use gradient corrections 
 use of overlap-Matrix (Vanderbilt PP)
 Fermi weights with tetrahedron method with Bloechl corrections


--------------------------------------------------------------------------------------------------------


  energy-cutoff  :      250.00
  volume of cell :     2053.06
      direct lattice vectors                 reciprocal lattice vectors
    12.708972402  0.001175606  0.000881185     0.078684569 -0.000005178 -0.000007372
     0.000836411 12.709900323  0.000772226    -0.000007278  0.078678824 -0.000005210
     0.001190937  0.000841731 12.710125633    -0.000005455 -0.000004780  0.078677429

  length of vectors
    12.708972486 12.709900374 12.710125717     0.078684569  0.078678824  0.078677430


 
 old parameters found on file WAVECAR:
  energy-cutoff  :      250.00
  volume of cell :     2053.06
      direct lattice vectors                 reciprocal lattice vectors
    12.708972402  0.001175606  0.000881185     0.078684569 -0.000005178 -0.000007372
     0.000836411 12.709900323  0.000772226    -0.000007278  0.078678824 -0.000005210
     0.001190937  0.000841731 12.710125633    -0.000005455 -0.000004780  0.078677429

  length of vectors

 
 k-points in units of 2pi/SCALE and weight: agbii                                   
   0.00000000  0.00000000  0.00000000       0.016
   0.01967114 -0.00000129 -0.00000184       0.031
   0.03934228 -0.00000259 -0.00000369       0.016
  -0.00000182  0.01966971 -0.00000130       0.031
   0.00000136  0.00000119 -0.01966936       0.031
   0.01966932  0.01966841 -0.00000315       0.031
  -0.01966978  0.00000249 -0.01966751       0.031
   0.03934046  0.01966712 -0.00000499       0.031
   0.03934365 -0.00000139 -0.01967304       0.031
  -0.01967296  0.01967100  0.00000054       0.031
   0.01967251 -0.00000010 -0.01967120       0.031
  -0.00000364  0.03933941 -0.00000260       0.016
  -0.00000273 -0.00000239  0.03933871       0.016
   0.01966750  0.03933812 -0.00000445       0.031
  -0.01967387 -0.00000110  0.03934056       0.031
   0.03933865  0.03933682 -0.00000629       0.016
   0.03933956 -0.00000498  0.03933503       0.016
  -0.00000318  0.01966851  0.01966805       0.031
   0.01966796  0.01966722  0.01966621       0.031
   0.03933910  0.01966592  0.01966437       0.031
  -0.01967433  0.01966981  0.01966990       0.031
  -0.00000500  0.03933822  0.01966675       0.031
  -0.00000091 -0.01967210  0.03934002       0.031
   0.01966614  0.03933692  0.01966491       0.031
  -0.01967205 -0.01967080  0.03934186       0.031
   0.03933728  0.03933563  0.01966307       0.031
   0.03934138 -0.01967468  0.03933633       0.031
  -0.01967614  0.03933951  0.01966860       0.031
   0.01967023 -0.01967339  0.03933817       0.031
   0.00000046 -0.01967090  0.01967066       0.031
   0.01967160 -0.01967220  0.01966882       0.031
  -0.01967069 -0.01966961  0.01967250       0.031
   0.03934274 -0.01967349  0.01966697       0.031
  -0.00000637  0.03933702  0.03933611       0.016
   0.01966478  0.03933573  0.03933427       0.031
   0.03933592  0.03933443  0.03933242       0.016
 
 k-points in reciprocal lattice and weights: agbii                                   
   0.00000000  0.00000000  0.00000000       0.016
   0.25000000  0.00000000  0.00000000       0.031
   0.50000000  0.00000000  0.00000000       0.016
  -0.00000000  0.25000000  0.00000000       0.031
  -0.00000000  0.00000000 -0.25000000       0.031
   0.25000000  0.25000000  0.00000000       0.031
  -0.25000000 -0.00000000 -0.25000000       0.031
   0.50000000  0.25000000  0.00000000       0.031
   0.50000000 -0.00000000 -0.25000000       0.031
  -0.25000000  0.25000000  0.00000000       0.031
   0.25000000 -0.00000000 -0.25000000       0.031
  -0.00000000  0.50000000  0.00000000       0.016
   0.00000000 -0.00000000  0.50000000       0.016
   0.25000000  0.50000000  0.00000000       0.031
  -0.25000000  0.00000000  0.50000000       0.031
   0.50000000  0.50000000  0.00000000       0.016
   0.50000000 -0.00000000  0.50000000       0.016
  -0.00000000  0.25000000  0.25000000       0.031
   0.25000000  0.25000000  0.25000000       0.031
   0.50000000  0.25000000  0.25000000       0.031
  -0.25000000  0.25000000  0.25000000       0.031
   0.00000000  0.50000000  0.25000000       0.031
   0.00000000 -0.25000000  0.50000000       0.031
   0.25000000  0.50000000  0.25000000       0.031
  -0.25000000 -0.25000000  0.50000000       0.031
   0.50000000  0.50000000  0.25000000       0.031
   0.50000000 -0.25000000  0.50000000       0.031
  -0.25000000  0.50000000  0.25000000       0.031
   0.25000000 -0.25000000  0.50000000       0.031
   0.00000000 -0.25000000  0.25000000       0.031
   0.25000000 -0.25000000  0.25000000       0.031
  -0.25000000 -0.25000000  0.25000000       0.031
   0.50000000 -0.25000000  0.25000000       0.031
   0.00000000  0.50000000  0.50000000       0.016
   0.25000000  0.50000000  0.50000000       0.031
   0.50000000  0.50000000  0.50000000       0.016
 
 position of ions in fractional coordinates (direct lattice) 
   0.99712440  0.00193109  0.00445388
   0.23956857  0.24479413  0.97653625
   0.75509083  0.75963326  0.02270766
   0.99552686  0.48967058  0.52286118
   0.51156787  0.00414377  0.47711387
   0.52387941  0.77513253  0.24907795
   0.22512256  0.47576251  0.74890766
   0.75252777  0.24760163  0.49881220
   0.49715073  0.50259808  0.99963697
   0.99985565  0.25012378  0.24984624
   0.99886216  0.74900457  0.75330899
   0.25163235  0.00161831  0.24657869
   0.75075324  0.00043895  0.74998901
   0.75126057  0.50185889  0.25338959
   0.49859646  0.24835030  0.74636504
   0.25218504  0.74825508  0.49979730
   0.23919422  0.00543317  0.00822247
   0.26171769  0.99834647  0.49758823
   0.25689044  0.49122264  0.97953811
   0.24104846  0.50750915  0.51878594
   0.75995045  0.98921585  0.99452495
   0.74104717  0.00995656  0.50550670
   0.74775057  0.51340097  0.00218433
   0.75598944  0.48938420  0.49163190
   0.01014559  0.23968178  0.00537842
   0.99025190  0.25999241  0.49423968
   0.99498351  0.76092320  0.99162853
   0.00207852  0.73781417  0.50203219
   0.48705928  0.25223799  0.99750361
   0.51116388  0.24380315  0.50802350
   0.50794823  0.74306290  0.01940840
   0.49291980  0.75982406  0.47993305
   0.99936467  0.00499640  0.25715178
   0.99512897  0.00056717  0.74276192
   0.99705831  0.49701474  0.24319226
   0.99401047  0.50850273  0.75695926
   0.49172099  0.00652974  0.24284935
   0.50317965  0.00286870  0.75620122
   0.50433960  0.49097200  0.24630681
   0.50926732  0.49550033  0.75326084
   0.24687276  0.24721889  0.25683750
   0.25823183  0.24458972  0.74198738
   0.24115097  0.75462877  0.25326681
   0.24595843  0.75906874  0.74623690
   0.75503700  0.24991801  0.24201207
   0.75037342  0.24509548  0.75781963
   0.75529044  0.74204867  0.25751928
   0.75330804  0.75329764  0.74302031
 
 position of ions in cartesian coordinates  (Angst):
  12.67243342  0.02571990  0.05748948
   3.04603813  3.11241263 12.41229851
   9.59709096  9.65576976  0.28986919
  12.65315569  6.22527469  6.64688667
   6.50207366  0.05366992  6.06463125
   6.65891398  9.85268269  3.16687227
   2.86236620  6.04778906  9.51927624
   9.56465580  3.14829652  6.34082002
   6.31988576  6.38939742 12.70633769
  12.70764462  3.18043411  3.17665129
  12.69603528  9.52158174  9.57611049
   3.19828360  0.02107194  3.13426913
   9.54219577  0.00709286  9.53311644
   9.54847136  6.37967289  3.22166304
   6.33774518  3.15772199  9.48702460
   3.20623379  9.51096468  6.35328654
   3.03992714  0.06934321  0.10472354
   3.32759053 12.68961060  6.32541054
   3.26639090  6.24451734 12.45065818
   3.06452052  6.45111075  6.59443874
   9.66020109 12.57456538 12.64197057
   9.41855844  0.12784357  6.42571436
   9.50357343  6.52615608  0.02881850
   9.60884375  6.22132695  6.24974728
   0.12914689  3.04634805  0.06855444
  12.58589015  3.30605772  6.28292177
  12.64703538  9.67326242 12.60518754
   0.02763079  9.37796958  6.38146378
   6.19142188  3.20733195 12.67902018
   6.49717654  3.09974228  6.45768120
   6.45614468  9.44486886  0.24770459
   6.26571122  9.65827149  6.10103052
  12.70120850  0.06489505  3.26931589
  12.64795170  0.00900381  9.44147463
  12.67229184  6.31838464  3.09226661
  12.63417845  6.46482472  9.62231588
   6.24956323  0.08377479  3.08708404
   6.39579933  0.03768895  9.61185817
   6.41034205  6.24100535  3.13141402
   6.47357582  6.29899253  9.57487127
   3.13801169  3.14263391  3.26484530
   3.28294941  3.10963909  9.43116924
   3.06571388  9.59175313  3.21984827
   3.12740253  9.64860533  9.48556760
   9.59624171  3.17752438  3.07686220
   9.53758265  3.11665921  9.63283322
   9.59989271  9.43246928  3.27434095
   9.57528609  9.57584894  9.44512697
 


--------------------------------------------------------------------------------------------------------


 k-point   1 :   0.0000 0.0000 0.0000  plane waves:   18349
 k-point   2 :   0.2500 0.0000 0.0000  plane waves:   18465
 k-point   3 :   0.5000 0.0000 0.0000  plane waves:   18464
 k-point   4 :  -0.0000 0.2500 0.0000  plane waves:   18465
 k-point   5 :  -0.0000 0.0000-0.2500  plane waves:   18465
 k-point   6 :   0.2500 0.2500 0.0000  plane waves:   18429
 k-point   7 :  -0.2500-0.0000-0.2500  plane waves:   18429
 k-point   8 :   0.5000 0.2500 0.0000  plane waves:   18418
 k-point   9 :   0.5000-0.0000-0.2500  plane waves:   18418
 k-point  10 :  -0.2500 0.2500 0.0000  plane waves:   18429
 k-point  11 :   0.2500-0.0000-0.2500  plane waves:   18429
 k-point  12 :  -0.0000 0.5000 0.0000  plane waves:   18464
 k-point  13 :   0.0000-0.0000 0.5000  plane waves:   18464
 k-point  14 :   0.2500 0.5000 0.0000  plane waves:   18418
 k-point  15 :  -0.2500 0.0000 0.5000  plane waves:   18418
 k-point  16 :   0.5000 0.5000 0.0000  plane waves:   18446
 k-point  17 :   0.5000-0.0000 0.5000  plane waves:   18446
 k-point  18 :  -0.0000 0.2500 0.2500  plane waves:   18429
 k-point  19 :   0.2500 0.2500 0.2500  plane waves:   18430
 k-point  20 :   0.5000 0.2500 0.2500  plane waves:   18438
 k-point  21 :  -0.2500 0.2500 0.2500  plane waves:   18430
 k-point  22 :   0.0000 0.5000 0.2500  plane waves:   18418
 k-point  23 :   0.0000-0.2500 0.5000  plane waves:   18418
 k-point  24 :   0.2500 0.5000 0.2500  plane waves:   18438
 k-point  25 :  -0.2500-0.2500 0.5000  plane waves:   18438
 k-point  26 :   0.5000 0.5000 0.2500  plane waves:   18433
 k-point  27 :   0.5000-0.2500 0.5000  plane waves:   18434
 k-point  28 :  -0.2500 0.5000 0.2500  plane waves:   18438
 k-point  29 :   0.2500-0.2500 0.5000  plane waves:   18438
 k-point  30 :   0.0000-0.2500 0.2500  plane waves:   18429
 k-point  31 :   0.2500-0.2500 0.2500  plane waves:   18430
 k-point  32 :  -0.2500-0.2500 0.2500  plane waves:   18430
 k-point  33 :   0.5000-0.2500 0.2500  plane waves:   18438
 k-point  34 :   0.0000 0.5000 0.5000  plane waves:   18436
 k-point  35 :   0.2500 0.5000 0.5000  plane waves:   18434
 k-point  36 :   0.5000 0.5000 0.5000  plane waves:   18336

 maximum and minimum number of plane-waves per node :     18465    18336

 maximum number of plane-waves:     18465
 maximum index in each direction: 
   IXMAX=   16   IYMAX=   16   IZMAX=   16
   IXMIN=  -16   IYMIN=  -16   IZMIN=  -16


 serial   3D FFT for wavefunctions
 parallel 3D FFT for charge:
    minimum data exchange during FFTs selected (reduces bandwidth)


 total amount of memory used by VASP MPI-rank0  2761676. kBytes
=======================================================================

   base      :      30000. kBytes
   nonl-proj :     301348. kBytes
   fftplans  :      34720. kBytes
   grid      :      70000. kBytes
   one-center:        746. kBytes
   wavefun   :    2324862. kBytes
 
     INWAV:  cpu time    4.5198: real time    5.8107
 Broyden mixing: mesh for mixing (old mesh)
   NGX = 33   NGY = 33   NGZ = 33
  (NGX  =100   NGY  =100   NGZ  =100)
  gives a total of  35937 points

 initial charge density was supplied:
 number of electron     352.0000304 magnetization 
 keeping initial charge density in first step


--------------------------------------------------------------------------------------------------------


 Maximum index for augmentation-charges         5630 (set IRDMAX)


--------------------------------------------------------------------------------------------------------


 First call to EWALD:  gamma=   0.139
 Maximum number of real-space cells 3x 3x 3
 Maximum number of reciprocal cells 3x 3x 3

    FEWALD:  cpu time    0.0026: real time    0.0026


--------------------------------------- Iteration      1(   1)  ---------------------------------------


    POTLOK:  cpu time    0.5685: real time    0.5892
    SETDIJ:  cpu time    0.0272: real time    0.0272
     EDDAV:  cpu time   58.5058: real time   58.5115
 BZINTS: Fermi energy:    2.092809;  352.000000 electrons
         Band energy:-0.747632E+03;  BLOECHL correction:   -0.000000
       DOS:  cpu time    0.0544: real time    0.0544
    CHARGE:  cpu time    1.2200: real time    1.2201
    MIXING:  cpu time    0.0287: real time    0.0287
    --------------------------------------------
      LOOP:  cpu time   60.4047: real time   60.4313

 eigenvalue-minimisations  : 10288
 total energy-change (2. order) :-0.1199659E+03  (-0.2579560E-06)
 number of electron     352.0000304 magnetization 
 augmentation part      -23.1226149 magnetization 

 Broyden mixing:
  rms(total) = 0.67278E-03    rms(broyden)= 0.67275E-03
  rms(prec ) = 0.78361E-03
  weight for this iteration     100.00

 Free energy of the ion-electron system (eV)
  ---------------------------------------------------
  alpha Z        PSCENC =       226.83093233
  Ewald energy   TEWEN  =    -13911.16482499
  -Hartree energ DENC   =     -6049.93950358
  -exchange      EXHF   =         0.00000000
  -V(xc)+E(xc)   XCENC  =     -1392.29152263
  PAW double counting   =     22646.97855250   -20504.47161927
  entropy T*S    EENTRO =         0.00000000
  eigenvalues    EBANDS =      -747.63163673
  atomic energy  EATOM  =     19611.72375700
  Solvation  Ediel_sol  =         0.00000000
  ---------------------------------------------------
  free energy    TOTEN  =      -119.96586537 eV

  energy without entropy =     -119.96586537  energy(sigma->0) =     -119.96586537


--------------------------------------------------------------------------------------------------------




--------------------------------------- Iteration      1(   2)  ---------------------------------------


    POTLOK:  cpu time    0.5599: real time    0.5602
    SETDIJ:  cpu time    0.0564: real time    0.0564
     EDDAV:  cpu time   50.4538: real time   50.4586
 BZINTS: Fermi energy:    2.092968;  352.000000 electrons
         Band energy:-0.747631E+03;  BLOECHL correction:    0.000000
       DOS:  cpu time    0.0558: real time    0.0558
    --------------------------------------------
      LOOP:  cpu time   51.1258: real time   51.1309

 eigenvalue-minimisations  :  8213
 total energy-change (2. order) : 0.3400055E-07  (-0.1174084E-06)
 number of electron     352.0000304 magnetization 
 augmentation part      -23.1226149 magnetization 

 Free energy of the ion-electron system (eV)
  ---------------------------------------------------
  alpha Z        PSCENC =       226.83093233
  Ewald energy   TEWEN  =    -13911.16482499
  -Hartree energ DENC   =     -6049.94019754
  -exchange      EXHF   =         0.00000000
  -V(xc)+E(xc)   XCENC  =     -1392.29102508
  PAW double counting   =     22646.54414104   -20504.03795763
  entropy T*S    EENTRO =         0.00000000
  eigenvalues    EBANDS =      -747.63069047
  atomic energy  EATOM  =     19611.72375700
  Solvation  Ediel_sol  =         0.00000000
  ---------------------------------------------------
  free energy    TOTEN  =      -119.96586534 eV

  energy without entropy =     -119.96586534  energy(sigma->0) =     -119.96586534


--------------------------------------------------------------------------------------------------------




 average (electrostatic) potential at core
  the test charge radii are     1.1249  1.4024  1.1875
  (the norm of the test charge is              1.0000)
       1 -74.9710       2 -75.0273       3 -75.0271       4 -75.0294       5 -75.0297
       6 -75.1551       7 -75.1516       8 -74.9718       9 -65.4453      10 -65.4781
      11 -65.4978      12 -65.5015      13 -65.4706      14 -65.5021      15 -65.4978
      16 -65.4442      17 -93.0428      18 -93.1486      19 -93.0585      20 -93.0600
      21 -92.9730      22 -92.9716      23 -93.1591      24 -93.0512      25 -92.9716
      26 -92.9745      27 -93.0477      28 -93.1532      29 -93.1552      30 -93.0506
      31 -93.0579      32 -93.0638      33 -93.3004      34 -93.2736      35 -93.3130
      36 -93.1922      37 -93.2049      38 -93.3025      39 -93.2952      40 -93.2933
      41 -93.3096      42 -93.1915      43 -93.3002      44 -93.2977      45 -93.2878
      46 -93.2789      47 -93.1958      48 -93.3051
 
 
 
 E-fermi :   2.0930     XC(G=0):  -7.8203     alpha+bet : -7.7962


 k-point     1 :       0.0000    0.0000    0.0000
  band No.  band energies     occupation 
      1     -10.8161      2.00000
      2     -10.6840      2.00000
      3     -10.6406      2.00000
      4     -10.5051      2.00000
      5     -10.4535      2.00000
      6     -10.2279      2.00000
      7     -10.1940      2.00000
      8     -10.0143      2.00000
      9      -9.8636      2.00000
     10      -9.8541      2.00000
     11      -9.8361      2.00000
     12      -9.8207      2.00000
     13      -9.8071      2.00000
     14      -9.7800      2.00000
     15      -9.7785      2.00000
     16      -9.7096      2.00000
     17      -9.6995      2.00000
     18      -9.6818      2.00000
     19      -9.6794      2.00000
     20      -9.6773      2.00000
     21      -9.6524      2.00000
     22      -9.6294      2.00000
     23      -9.6239      2.00000
     24      -9.5958      2.00000
     25      -9.5838      2.00000
     26      -9.5770      2.00000
     27      -9.5593      2.00000
     28      -9.5310      2.00000
     29      -9.5251      2.00000
     30      -9.5190      2.00000
     31      -9.5127      2.00000
     32      -9.4805      2.00000
     33      -8.1890      2.00000
     34      -8.0906      2.00000
     35      -8.0796      2.00000
     36      -7.8507      2.00000
     37      -7.8257      2.00000
     38      -7.6187      2.00000
     39      -7.6011      2.00000
     40      -7.6001      2.00000
     41      -1.7927      2.00000
     42      -1.7349      2.00000
     43      -1.6851      2.00000
     44      -1.6783      2.00000
     45      -1.6260      2.00000
     46      -1.5601      2.00000
     47      -1.4982      2.00000
     48      -1.4452      2.00000
     49      -1.4399      2.00000
     50      -1.4054      2.00000
     51      -1.4021      2.00000
     52      -1.3637      2.00000
     53      -1.3265      2.00000
     54      -1.2923      2.00000
     55      -1.2847      2.00000
     56      -1.2497      2.00000
     57      -1.2031      2.00000
     58      -1.1983      2.00000
     59      -1.1258      2.00000
     60      -1.0785      2.00000
     61      -1.0738      2.00000
     62      -1.0341      2.00000
     63      -0.9985      2.00000
     64      -0.9891      2.00000
     65      -0.9823      2.00000
     66      -0.9705      2.00000
     67      -0.9554      2.00000
     68      -0.9525      2.00000
     69      -0.9289      2.00000
     70      -0.8943      2.00000
     71      -0.8889      2.00000
     72      -0.8841      2.00000
     73      -0.8498      2.00000
     74      -0.8228      2.00000
     75      -0.8190      2.00000
     76      -0.7888      2.00000
     77      -0.7825      2.00000
     78      -0.7735      2.00000
     79      -0.7572      2.00000
     80      -0.7088      2.00000
     81      -0.6757      2.00000
     82      -0.6650      2.00000
     83      -0.6274      2.00000
     84      -0.6150      2.00000
     85      -0.6028      2.00000
     86      -0.5819      2.00000
     87      -0.5524      2.00000
     88      -0.5241      2.00000
     89      -0.5119      2.00000
     90      -0.4773      2.00000
     91      -0.4480      2.00000
     92      -0.4399      2.00000
     93      -0.4251      2.00000
     94      -0.3821      2.00000
     95      -0.3707      2.00000
     96      -0.3421      2.00000
     97      -0.3249      2.00000
     98      -0.3171      2.00000
     99      -0.2936      2.00000
    100      -0.2882      2.00000
    101      -0.2571      2.00000
    102      -0.2374      2.00000
    103      -0.2327      2.00000
    104      -0.1999      2.00000
    105      -0.1771      2.00000
    106      -0.1714      2.00000
    107      -0.1452      2.00000
    108      -0.1236      2.00000
    109      -0.0943      2.00000
    110      -0.0842      2.00000
    111      -0.0309      2.00000
    112      -0.0110      2.00000
    113       0.1061      2.00000
    114       0.1537      2.00000
    115       0.1964      2.00000
    116       0.2038      2.00000
    117       0.2087      2.00000
    118       0.2362      2.00000
    119       0.2611      2.00000
    120       0.2732      2.00000
    121       0.2778      2.00000
    122       0.3181      2.00000
    123       0.3843      2.00000
    124       0.4219      2.00000
    125       0.4281      2.00000
    126       0.4411      2.00000
    127       0.5103      2.00000
    128       0.5430      2.00000
    129       0.5487      2.00000
    130       0.5517      2.00000
    131       0.5640      2.00000
    132       0.5754      2.00000
    133       0.6155      2.00000
    134       0.6684      2.00000
    135       0.7206      2.00000
    136       0.7360      2.00000
    137       0.7424      2.00000
    138       0.7431      2.00000
    139       0.7547      2.00000
    140       0.8062      2.00000
    141       0.8083      2.00000
    142       0.8242      2.00000
    143       0.8482      2.00000
    144       0.8661      2.00000
    145       0.8738      2.00000
    146       0.9144      2.00000
    147       0.9659      2.00000
    148       0.9940      2.00000
    149       1.0187      2.00000
    150       1.0544      2.00000
    151       1.0908      2.00000
    152       1.1173      2.00000
    153       1.1309      2.00000
    154       1.1794      2.00000
    155       1.1949      2.00000
    156       1.1998      2.00000
    157       1.2243      2.00000
    158       1.2350      2.00000
    159       1.2716      2.00000
    160       1.3394      2.00000
    161       1.3858      2.00000
    162       1.4303      2.00000
    163       1.4970      2.00000
    164       1.5258      2.00000
    165       1.5718      2.00000
    166       1.5865      2.00000
    167       1.6080      2.00000
    168       1.6356      2.00000
    169       1.7907      2.00000
    170       1.7949      2.00000
    171       1.9116      2.00000
    172       1.9268      2.00000
    173       2.0358      2.00000
    174       2.0487      2.00000
    175       2.0637      2.00000
    176       2.0929      2.00000
    177       3.8701      0.00000
    178       4.0322      0.00000
    179       4.0405      0.00000
    180       4.1540      0.00000
    181       4.1907      0.00000
    182       4.3727      0.00000
    183       4.3756      0.00000
    184       4.4204      0.00000
    185       4.4483      0.00000
    186       4.4669      0.00000
    187       4.5413      0.00000
    188       4.5603      0.00000
    189       4.5857      0.00000
    190       4.5876      0.00000
    191       4.6304      0.00000
    192       4.6380      0.00000
    193       4.6653      0.00000
    194       4.7286      0.00000
    195       4.7566      0.00000
    196       4.7633      0.00000
    197       4.8297      0.00000
    198       4.8590      0.00000
    199       4.8642      0.00000
    200       4.9790      0.00000
    201       5.1065      0.00000
    202       5.3018      0.00000
    203       5.6051      0.00000
    204       5.7437      0.00000
    205       5.9549      0.00000
    206       5.9752      0.00000
    207       5.9855      0.00000
    208       6.0211      0.00000
    209       7.1838      0.00000
    210       7.2872      0.00000
    211       7.2996      0.00000

 k-point     2 :       0.2500    0.0000    0.0000
  band No.  band energies     occupation 
      1     -10.8009      2.00000
      2     -10.6902      2.00000
      3     -10.6611      2.00000
      4     -10.5023      2.00000
      5     -10.4500      2.00000
      6     -10.2272      2.00000
      7     -10.1824      2.00000
      8     -10.0250      2.00000
      9      -9.8685      2.00000
     10      -9.8630      2.00000
     11      -9.8409      2.00000
     12      -9.8215      2.00000
     13      -9.8104      2.00000
     14      -9.7696      2.00000
     15      -9.7585      2.00000
     16      -9.7143      2.00000
     17      -9.6996      2.00000
     18      -9.6870      2.00000
     19      -9.6681      2.00000
     20      -9.6657      2.00000
     21      -9.6593      2.00000
     22      -9.6314      2.00000
     23      -9.6172      2.00000
     24      -9.6024      2.00000
     25      -9.5805      2.00000
     26      -9.5788      2.00000
     27      -9.5541      2.00000
     28      -9.5369      2.00000
     29      -9.5266      2.00000
     30      -9.5201      2.00000
     31      -9.5113      2.00000
     32      -9.4865      2.00000
     33      -8.1943      2.00000
     34      -8.0874      2.00000
     35      -8.0793      2.00000
     36      -7.8493      2.00000
     37      -7.8265      2.00000
     38      -7.6500      2.00000
     39      -7.5987      2.00000
     40      -7.5714      2.00000
     41      -1.7704      2.00000
     42      -1.7181      2.00000
     43      -1.6860      2.00000
     44      -1.6635      2.00000
     45      -1.6200      2.00000
     46      -1.5818      2.00000
     47      -1.5295      2.00000
     48      -1.5142      2.00000
     49      -1.4617      2.00000
     50      -1.4181      2.00000
     51      -1.3658      2.00000
     52      -1.3504      2.00000
     53      -1.3195      2.00000
     54      -1.2874      2.00000
     55      -1.2686      2.00000
     56      -1.2421      2.00000
     57      -1.1964      2.00000
     58      -1.1709      2.00000
     59      -1.1473      2.00000
     60      -1.0975      2.00000
     61      -1.0870      2.00000
     62      -1.0526      2.00000
     63      -1.0172      2.00000
     64      -1.0047      2.00000
     65      -0.9862      2.00000
     66      -0.9698      2.00000
     67      -0.9519      2.00000
     68      -0.9349      2.00000
     69      -0.9131      2.00000
     70      -0.9042      2.00000
     71      -0.8838      2.00000
     72      -0.8734      2.00000
     73      -0.8518      2.00000
     74      -0.8419      2.00000
     75      -0.8065      2.00000
     76      -0.7864      2.00000
     77      -0.7835      2.00000
     78      -0.7776      2.00000
     79      -0.7358      2.00000
     80      -0.7245      2.00000
     81      -0.6781      2.00000
     82      -0.6504      2.00000
     83      -0.6265      2.00000
     84      -0.6189      2.00000
     85      -0.6021      2.00000
     86      -0.5601      2.00000
     87      -0.5528      2.00000
     88      -0.5260      2.00000
     89      -0.4785      2.00000
     90      -0.4654      2.00000
     91      -0.4476      2.00000
     92      -0.4362      2.00000
     93      -0.4092      2.00000
     94      -0.3827      2.00000
     95      -0.3700      2.00000
     96      -0.3554      2.00000
     97      -0.3443      2.00000
     98      -0.3311      2.00000
     99      -0.3086      2.00000
    100      -0.2842      2.00000
    101      -0.2721      2.00000
    102      -0.2537      2.00000
    103      -0.1933      2.00000
    104      -0.1905      2.00000
    105      -0.1805      2.00000
    106      -0.1474      2.00000
    107      -0.1286      2.00000
    108      -0.1254      2.00000
    109      -0.1159      2.00000
    110      -0.0997      2.00000
    111      -0.0664      2.00000
    112      -0.0148      2.00000
    113       0.1105      2.00000
    114       0.1365      2.00000
    115       0.1604      2.00000
    116       0.1751      2.00000
    117       0.2078      2.00000
    118       0.2556      2.00000
    119       0.2742      2.00000
    120       0.2916      2.00000
    121       0.3102      2.00000
    122       0.3650      2.00000
    123       0.3777      2.00000
    124       0.3831      2.00000
    125       0.4424      2.00000
    126       0.4774      2.00000
    127       0.4996      2.00000
    128       0.5339      2.00000
    129       0.5528      2.00000
    130       0.5820      2.00000
    131       0.5952      2.00000
    132       0.6174      2.00000
    133       0.6277      2.00000
    134       0.6549      2.00000
    135       0.6793      2.00000
    136       0.7143      2.00000
    137       0.7270      2.00000
    138       0.7464      2.00000
    139       0.7834      2.00000
    140       0.7898      2.00000
    141       0.8016      2.00000
    142       0.8418      2.00000
    143       0.8454      2.00000
    144       0.8617      2.00000
    145       0.8908      2.00000
    146       0.9242      2.00000
    147       0.9996      2.00000
    148       1.0154      2.00000
    149       1.0190      2.00000
    150       1.0373      2.00000
    151       1.0487      2.00000
    152       1.1100      2.00000
    153       1.1547      2.00000
    154       1.1767      2.00000
    155       1.1825      2.00000
    156       1.1875      2.00000
    157       1.2160      2.00000
    158       1.2420      2.00000
    159       1.2751      2.00000
    160       1.3297      2.00000
    161       1.3849      2.00000
    162       1.4451      2.00000
    163       1.5057      2.00000
    164       1.5183      2.00000
    165       1.5610      2.00000
    166       1.5878      2.00000
    167       1.6348      2.00000
    168       1.6589      2.00000
    169       1.7844      2.00000
    170       1.7987      2.00000
    171       1.8883      2.00000
    172       1.9125      2.00000
    173       2.0059      2.00000
    174       2.0107      2.00000
    175       2.0419      2.00000
    176       2.0538      2.00000
    177       3.9307      0.00000
    178       4.0218      0.00000
    179       4.0632      0.00000
    180       4.1746      0.00000
    181       4.1937      0.00000
    182       4.3297      0.00000
    183       4.3517      0.00000
    184       4.4220      0.00000
    185       4.4531      0.00000
    186       4.4775      0.00000
    187       4.4964      0.00000
    188       4.5341      0.00000
    189       4.6038      0.00000
    190       4.6112      0.00000
    191       4.6289      0.00000
    192       4.6508      0.00000
    193       4.6761      0.00000
    194       4.6828      0.00000
    195       4.7241      0.00000
    196       4.7893      0.00000
    197       4.8102      0.00000
    198       4.8558      0.00000
    199       4.8871      0.00000
    200       4.9585      0.00000
    201       5.2340      0.00000
    202       5.3865      0.00000
    203       5.6157      0.00000
    204       5.7569      0.00000
    205       5.8501      0.00000
    206       5.8685      0.00000
    207       5.9899      0.00000
    208       6.0046      0.00000
    209       7.2968      0.00000
    210       7.3304      0.00000
    211       7.3978      0.00000

 k-point     3 :       0.5000    0.0000    0.0000
  band No.  band energies     occupation 
      1     -10.7760      2.00000
      2     -10.7166      2.00000
      3     -10.6692      2.00000
      4     -10.5006      2.00000
      5     -10.4468      2.00000
      6     -10.2277      2.00000
      7     -10.1691      2.00000
      8     -10.0351      2.00000
      9      -9.8740      2.00000
     10      -9.8702      2.00000
     11      -9.8442      2.00000
     12      -9.8222      2.00000
     13      -9.8134      2.00000
     14      -9.7585      2.00000
     15      -9.7406      2.00000
     16      -9.7153      2.00000
     17      -9.7075      2.00000
     18      -9.6809      2.00000
     19      -9.6727      2.00000
     20      -9.6651      2.00000
     21      -9.6424      2.00000
     22      -9.6399      2.00000
     23      -9.6131      2.00000
     24      -9.5919      2.00000
     25      -9.5877      2.00000
     26      -9.5840      2.00000
     27      -9.5519      2.00000
     28      -9.5458      2.00000
     29      -9.5228      2.00000
     30      -9.5206      2.00000
     31      -9.5043      2.00000
     32      -9.4993      2.00000
     33      -8.1995      2.00000
     34      -8.0861      2.00000
     35      -8.0768      2.00000
     36      -7.8486      2.00000
     37      -7.8270      2.00000
     38      -7.6669      2.00000
     39      -7.5962      2.00000
     40      -7.5572      2.00000
     41      -1.7327      2.00000
     42      -1.7138      2.00000
     43      -1.6661      2.00000
     44      -1.6459      2.00000
     45      -1.6310      2.00000
     46      -1.6115      2.00000
     47      -1.5630      2.00000
     48      -1.5407      2.00000
     49      -1.4875      2.00000
     50      -1.4172      2.00000
     51      -1.3883      2.00000
     52      -1.3517      2.00000
     53      -1.2831      2.00000
     54      -1.2790      2.00000
     55      -1.2562      2.00000
     56      -1.2215      2.00000
     57      -1.2140      2.00000
     58      -1.1584      2.00000
     59      -1.1485      2.00000
     60      -1.1283      2.00000
     61      -1.1217      2.00000
     62      -1.0702      2.00000
     63      -1.0137      2.00000
     64      -0.9867      2.00000
     65      -0.9839      2.00000
     66      -0.9602      2.00000
     67      -0.9356      2.00000
     68      -0.9318      2.00000
     69      -0.9125      2.00000
     70      -0.9080      2.00000
     71      -0.8967      2.00000
     72      -0.8740      2.00000
     73      -0.8337      2.00000
     74      -0.8252      2.00000
     75      -0.8113      2.00000
     76      -0.8029      2.00000
     77      -0.7798      2.00000
     78      -0.7753      2.00000
     79      -0.7559      2.00000
     80      -0.7366      2.00000
     81      -0.6655      2.00000
     82      -0.6437      2.00000
     83      -0.6285      2.00000
     84      -0.6021      2.00000
     85      -0.5971      2.00000
     86      -0.5670      2.00000
     87      -0.5434      2.00000
     88      -0.4847      2.00000
     89      -0.4782      2.00000
     90      -0.4728      2.00000
     91      -0.4561      2.00000
     92      -0.4377      2.00000
     93      -0.3961      2.00000
     94      -0.3939      2.00000
     95      -0.3759      2.00000
     96      -0.3544      2.00000
     97      -0.3252      2.00000
     98      -0.3187      2.00000
     99      -0.3098      2.00000
    100      -0.3002      2.00000
    101      -0.2763      2.00000
    102      -0.2731      2.00000
    103      -0.2024      2.00000
    104      -0.1752      2.00000
    105      -0.1577      2.00000
    106      -0.1457      2.00000
    107      -0.1329      2.00000
    108      -0.1298      2.00000
    109      -0.1170      2.00000
    110      -0.0873      2.00000
    111      -0.0858      2.00000
    112      -0.0193      2.00000
    113       0.0658      2.00000
    114       0.0821      2.00000
    115       0.1253      2.00000
    116       0.1682      2.00000
    117       0.2100      2.00000
    118       0.2328      2.00000
    119       0.2873      2.00000
    120       0.3206      2.00000
    121       0.3431      2.00000
    122       0.4143      2.00000
    123       0.4280      2.00000
    124       0.4490      2.00000
    125       0.4710      2.00000
    126       0.4901      2.00000
    127       0.5155      2.00000
    128       0.5417      2.00000
    129       0.5597      2.00000
    130       0.5714      2.00000
    131       0.5803      2.00000
    132       0.6015      2.00000
    133       0.6071      2.00000
    134       0.6648      2.00000
    135       0.6702      2.00000
    136       0.6772      2.00000
    137       0.7371      2.00000
    138       0.7527      2.00000
    139       0.7730      2.00000
    140       0.7875      2.00000
    141       0.7934      2.00000
    142       0.8267      2.00000
    143       0.8436      2.00000
    144       0.8984      2.00000
    145       0.9078      2.00000
    146       0.9469      2.00000
    147       0.9595      2.00000
    148       0.9982      2.00000
    149       1.0304      2.00000
    150       1.0633      2.00000
    151       1.0941      2.00000
    152       1.0953      2.00000
    153       1.1172      2.00000
    154       1.1203      2.00000
    155       1.1781      2.00000
    156       1.1912      2.00000
    157       1.2220      2.00000
    158       1.2643      2.00000
    159       1.2804      2.00000
    160       1.3083      2.00000
    161       1.4254      2.00000
    162       1.4452      2.00000
    163       1.4860      2.00000
    164       1.5067      2.00000
    165       1.6127      2.00000
    166       1.6197      2.00000
    167       1.6401      2.00000
[...]
    143       0.8785      2.00000
    144       0.8826      2.00000
    145       0.9503      2.00000
    146       0.9516      2.00000
    147       1.0444      2.00000
    148       1.0460      2.00000
    149       1.0691      2.00000
    150       1.0726      2.00000
    151       1.1041      2.00000
    152       1.1068      2.00000
    153       1.1266      2.00000
    154       1.1307      2.00000
    155       1.1943      2.00000
    156       1.1949      2.00000
    157       1.2401      2.00000
    158       1.2427      2.00000
    159       1.2957      2.00000
    160       1.2970      2.00000
    161       1.4817      2.00000
    162       1.4854      2.00000
    163       1.6088      2.00000
    164       1.6136      2.00000
    165       1.6231      2.00000
    166       1.6265      2.00000
    167       1.7113      2.00000
    168       1.7164      2.00000
    169       1.7852      2.00000
    170       1.7863      2.00000
    171       1.8696      2.00000
    172       1.8743      2.00000
    173       1.9003      2.00000
    174       1.9046      2.00000
    175       2.0183      2.00000
    176       2.0206      2.00000
    177       3.8381      0.00000
    178       3.8436      0.00000
    179       4.0207      0.00000
    180       4.0244      0.00000
    181       4.1319      0.00000
    182       4.1336      0.00000
    183       4.2824      0.00000
    184       4.2859      0.00000
    185       4.3517      0.00000
    186       4.3547      0.00000
    187       4.4556      0.00000
    188       4.4577      0.00000
    189       4.6318      0.00000
    190       4.6340      0.00000
    191       4.7072      0.00000
    192       4.7078      0.00000
    193       4.7978      0.00000
    194       4.8021      0.00000
    195       4.8479      0.00000
    196       4.8512      0.00000
    197       4.9160      0.00000
    198       4.9196      0.00000
    199       5.0422      0.00000
    200       5.0445      0.00000
    201       5.5892      0.00000
    202       5.5920      0.00000
    203       5.6289      0.00000
    204       5.6321      0.00000
    205       5.6625      0.00000
    206       5.6643      0.00000
    207       5.8176      0.00000
    208       5.8233      0.00000
    209       7.3483      0.00000
    210       7.3559      0.00000
    211       7.5237      0.00000

 k-point    36 :       0.5000    0.5000    0.5000
  band No.  band energies     occupation 
      1     -10.7416      2.00000
      2     -10.7364      2.00000
      3     -10.6127      2.00000
      4     -10.6111      2.00000
      5     -10.3564      2.00000
      6     -10.3557      2.00000
      7     -10.0910      2.00000
      8     -10.0855      2.00000
      9      -9.8810      2.00000
     10      -9.8744      2.00000
     11      -9.7902      2.00000
     12      -9.7819      2.00000
     13      -9.7619      2.00000
     14      -9.7588      2.00000
     15      -9.7214      2.00000
     16      -9.7191      2.00000
     17      -9.6994      2.00000
     18      -9.6947      2.00000
     19      -9.6739      2.00000
     20      -9.6714      2.00000
     21      -9.6682      2.00000
     22      -9.6678      2.00000
     23      -9.6065      2.00000
     24      -9.6045      2.00000
     25      -9.5852      2.00000
     26      -9.5839      2.00000
     27      -9.5563      2.00000
     28      -9.5550      2.00000
     29      -9.5203      2.00000
     30      -9.5198      2.00000
     31      -9.5108      2.00000
     32      -9.5094      2.00000
     33      -8.1664      2.00000
     34      -8.1650      2.00000
     35      -7.9732      2.00000
     36      -7.9724      2.00000
     37      -7.7354      2.00000
     38      -7.7332      2.00000
     39      -7.5599      2.00000
     40      -7.5553      2.00000
     41      -1.7551      2.00000
     42      -1.7482      2.00000
     43      -1.6501      2.00000
     44      -1.6483      2.00000
     45      -1.6052      2.00000
     46      -1.6031      2.00000
     47      -1.5130      2.00000
     48      -1.5099      2.00000
     49      -1.4579      2.00000
     50      -1.4563      2.00000
     51      -1.4324      2.00000
     52      -1.4259      2.00000
     53      -1.3504      2.00000
     54      -1.3485      2.00000
     55      -1.2578      2.00000
     56      -1.2537      2.00000
     57      -1.2393      2.00000
     58      -1.2343      2.00000
     59      -1.1136      2.00000
     60      -1.1092      2.00000
     61      -1.0158      2.00000
     62      -1.0124      2.00000
     63      -0.9828      2.00000
     64      -0.9748      2.00000
     65      -0.9647      2.00000
     66      -0.9636      2.00000
     67      -0.9381      2.00000
     68      -0.9327      2.00000
     69      -0.8859      2.00000
     70      -0.8809      2.00000
     71      -0.8529      2.00000
     72      -0.8498      2.00000
     73      -0.8372      2.00000
     74      -0.8353      2.00000
     75      -0.8120      2.00000
     76      -0.8094      2.00000
     77      -0.8029      2.00000
     78      -0.7967      2.00000
     79      -0.7147      2.00000
     80      -0.7107      2.00000
     81      -0.6657      2.00000
     82      -0.6611      2.00000
     83      -0.5980      2.00000
     84      -0.5930      2.00000
     85      -0.5645      2.00000
     86      -0.5583      2.00000
     87      -0.5220      2.00000
     88      -0.5172      2.00000
     89      -0.4858      2.00000
     90      -0.4840      2.00000
     91      -0.4471      2.00000
     92      -0.4461      2.00000
     93      -0.3707      2.00000
     94      -0.3687      2.00000
     95      -0.3537      2.00000
     96      -0.3504      2.00000
     97      -0.3273      2.00000
     98      -0.3239      2.00000
     99      -0.2823      2.00000
    100      -0.2804      2.00000
    101      -0.2775      2.00000
    102      -0.2756      2.00000
    103      -0.2253      2.00000
    104      -0.2236      2.00000
    105      -0.1811      2.00000
    106      -0.1794      2.00000
    107      -0.1531      2.00000
    108      -0.1504      2.00000
    109      -0.1120      2.00000
    110      -0.1106      2.00000
    111      -0.0511      2.00000
    112      -0.0463      2.00000
    113       0.0632      2.00000
    114       0.0652      2.00000
    115       0.1718      2.00000
    116       0.1743      2.00000
    117       0.2586      2.00000
    118       0.2600      2.00000
    119       0.3134      2.00000
    120       0.3171      2.00000
    121       0.3913      2.00000
    122       0.3931      2.00000
    123       0.3957      2.00000
    124       0.3987      2.00000
    125       0.4441      2.00000
    126       0.4477      2.00000
    127       0.4792      2.00000
    128       0.4826      2.00000
    129       0.5402      2.00000
    130       0.5436      2.00000
    131       0.5783      2.00000
    132       0.5811      2.00000
    133       0.5993      2.00000
    134       0.6071      2.00000
    135       0.6326      2.00000
    136       0.6341      2.00000
    137       0.6999      2.00000
    138       0.7038      2.00000
    139       0.7270      2.00000
    140       0.7321      2.00000
    141       0.7660      2.00000
    142       0.7668      2.00000
    143       0.9051      2.00000
    144       0.9099      2.00000
    145       0.9377      2.00000
    146       0.9389      2.00000
    147       1.0613      2.00000
    148       1.0664      2.00000
    149       1.0819      2.00000
    150       1.0847      2.00000
    151       1.1027      2.00000
    152       1.1069      2.00000
    153       1.1197      2.00000
    154       1.1232      2.00000
    155       1.2047      2.00000
    156       1.2049      2.00000
    157       1.2350      2.00000
    158       1.2373      2.00000
    159       1.2987      2.00000
    160       1.3000      2.00000
    161       1.5134      2.00000
    162       1.5183      2.00000
    163       1.6115      2.00000
    164       1.6162      2.00000
    165       1.6201      2.00000
    166       1.6227      2.00000
    167       1.7281      2.00000
    168       1.7339      2.00000
    169       1.8029      2.00000
    170       1.8054      2.00000
    171       1.8724      2.00000
    172       1.8780      2.00000
    173       1.8959      2.00000
    174       1.9003      2.00000
    175       2.0563      2.00000
    176       2.0590      2.00000
    177       3.7383      0.00000
    178       3.7438      0.00000
    179       3.9426      0.00000
    180       3.9468      0.00000
    181       4.0714      0.00000
    182       4.0737      0.00000
    183       4.2567      0.00000
    184       4.2590      0.00000
    185       4.3459      0.00000
    186       4.3476      0.00000
    187       4.4521      0.00000
    188       4.4545      0.00000
    189       4.6463      0.00000
    190       4.6487      0.00000
    191       4.7318      0.00000
    192       4.7328      0.00000
    193       4.8473      0.00000
    194       4.8518      0.00000
    195       4.8786      0.00000
    196       4.8809      0.00000
    197       4.9831      0.00000
    198       4.9852      0.00000
    199       5.0572      0.00000
    200       5.0618      0.00000
    201       5.5757      0.00000
    202       5.5770      0.00000
    203       5.6002      0.00000
    204       5.6074      0.00000
    205       5.6299      0.00000
    206       5.6317      0.00000
    207       5.8316      0.00000
    208       5.8361      0.00000
    209       7.2663      0.00000
    210       7.2733      0.00000
    211       7.5427      0.00000


--------------------------------------------------------------------------------------------------------


 soft charge-density along one line, spin component           1
         0         1         2         3         4         5         6         7         8         9
 total charge-density along one line
 
 pseudopotential strength for first ion, spin component:           1
 -6.401   0.000   0.000   0.000   0.000  -6.538   0.000   0.000
  0.000  -6.412  -0.000  -0.000  -0.001   0.000  -6.548  -0.000
  0.000  -0.000  -6.406  -0.000  -0.000   0.000  -0.000  -6.543
  0.000  -0.000  -0.000  -6.412   0.001   0.000  -0.000  -0.000
  0.000  -0.001  -0.000   0.001  -6.391   0.000  -0.001  -0.000
 -6.538   0.000   0.000   0.000   0.000  -6.644   0.000   0.000
  0.000  -6.548  -0.000  -0.000  -0.001   0.000  -6.654  -0.000
  0.000  -0.000  -6.543  -0.000  -0.000   0.000  -0.000  -6.649
  0.000  -0.000  -0.000  -6.548   0.000   0.000  -0.000  -0.000
  0.000  -0.001  -0.000   0.000  -6.528   0.000  -0.000  -0.000
  0.001   0.000  -0.001   0.000  -0.000   0.001   0.000  -0.001
  0.001   0.000  -0.001   0.000  -0.000   0.001   0.000  -0.001
  0.002  -0.001   0.001   0.000   0.002   0.001  -0.001   0.001
  0.000  -0.001  -0.001   0.002  -0.000   0.000  -0.001  -0.001
 -0.001   0.000  -0.001  -0.001   0.002  -0.001   0.000  -0.001
  0.002  -0.001   0.001   0.000   0.002   0.002  -0.001   0.001
  0.000  -0.002  -0.001   0.002  -0.000   0.000  -0.002  -0.001
 -0.002   0.000  -0.001  -0.001   0.002  -0.002   0.000  -0.001
 total augmentation occupancy for first ion, spin component:           1
  2.273   0.007  -0.058   0.011   0.005  -0.304  -0.009   0.060  -0.013  -0.004  -0.079   0.017  -0.015   0.001   0.013   0.002
  0.007   2.210  -0.031   0.002  -0.073  -0.009  -0.231   0.024  -0.007   0.069  -0.054   0.010   0.015  -0.002   0.000  -0.001
 -0.058  -0.031   3.712  -0.032   0.001   0.060   0.024  -1.559   0.025  -0.001   0.376  -0.045   0.008  -0.043  -0.009  -0.000
  0.011   0.002  -0.032   2.210   0.078  -0.013  -0.007   0.025  -0.231  -0.074  -0.056   0.010   0.001   0.001   0.008  -0.000
  0.005  -0.073   0.001   0.078   4.543  -0.004   0.069  -0.001  -0.074  -2.353   0.003  -0.001   0.027  -0.004   0.033  -0.001
 -0.304  -0.009   0.060  -0.013  -0.004   0.316   0.011  -0.061   0.014   0.004   0.068  -0.017   0.012  -0.001  -0.010  -0.001
 -0.009  -0.231   0.024  -0.007   0.069   0.011   0.235  -0.018   0.010  -0.065   0.049  -0.011  -0.011   0.002  -0.000   0.001
  0.060   0.024  -1.559   0.025  -0.001  -0.061  -0.018   1.409  -0.019   0.001  -0.342   0.060  -0.008   0.039   0.008   0.000
 -0.013  -0.007   0.025  -0.231  -0.074   0.014   0.010  -0.019   0.233   0.070   0.050  -0.011  -0.001  -0.002  -0.006   0.000
 -0.004   0.069  -0.001  -0.074  -2.353   0.004  -0.065   0.001   0.070   2.167  -0.003   0.001  -0.025   0.003  -0.030   0.001
 -0.079  -0.054   0.376  -0.056   0.003   0.068   0.049  -0.342   0.050  -0.003   1.421  -0.303   0.008   0.008  -0.010  -0.001
  0.017   0.010  -0.045   0.010  -0.001  -0.017  -0.011   0.060  -0.011   0.001  -0.303   0.069  -0.001  -0.002   0.002   0.000
 -0.015   0.015   0.008   0.001   0.027   0.012  -0.011  -0.008  -0.001  -0.025   0.008  -0.001   0.100   0.003   0.004  -0.007
  0.001  -0.002  -0.043   0.001  -0.004  -0.001   0.002   0.039  -0.002   0.003   0.008  -0.002   0.003   0.062   0.003  -0.000
  0.013   0.000  -0.009   0.008   0.033  -0.010  -0.000   0.008  -0.006  -0.030  -0.010   0.002   0.004   0.003   0.100  -0.000
  0.002  -0.001  -0.000  -0.000  -0.001  -0.001   0.001   0.000   0.000   0.001  -0.001   0.000  -0.007  -0.000  -0.000   0.001
 -0.000  -0.001   0.002   0.001   0.000   0.000  -0.000  -0.002   0.000  -0.000  -0.001   0.000  -0.000  -0.004  -0.000   0.000
 -0.001  -0.000   0.000  -0.001  -0.001   0.001   0.000  -0.001   0.000   0.002   0.001  -0.000  -0.000  -0.000  -0.007   0.000


------------------------ aborting loop because EDIFF is reached ----------------------------------------


 


 total charge     
 
# of ion       s       p       d       tot
------------------------------------------
    1        0.239   0.148   9.323   9.709
    2        0.241   0.151   9.320   9.713
    3        0.241   0.151   9.320   9.712
    4        0.241   0.152   9.320   9.713
    5        0.241   0.152   9.320   9.713
    6        0.252   0.158   9.313   9.722
    7        0.252   0.158   9.313   9.722
    8        0.238   0.146   9.323   9.708
    9        1.833   1.401   0.135   3.369
   10        1.835   1.397   0.139   3.371
   11        1.834   1.401   0.138   3.373
   12        1.834   1.401   0.138   3.373
   13        1.835   1.397   0.139   3.371
   14        1.834   1.401   0.138   3.373
   15        1.834   1.401   0.138   3.373
   16        1.833   1.401   0.135   3.369
   17        1.516   2.744   0.015   4.274
   18        1.518   2.745   0.012   4.275
   19        1.515   2.743   0.015   4.272
   20        1.514   2.743   0.015   4.272
   21        1.513   2.748   0.016   4.276
   22        1.513   2.747   0.016   4.276
   23        1.517   2.745   0.013   4.275
   24        1.516   2.743   0.015   4.274
   25        1.513   2.747   0.016   4.276
   26        1.513   2.747   0.016   4.276
   27        1.516   2.744   0.015   4.274
   28        1.517   2.745   0.013   4.275
   29        1.517   2.745   0.013   4.275
   30        1.516   2.743   0.015   4.274
   31        1.514   2.743   0.015   4.272
   32        1.514   2.743   0.015   4.272
   33        1.518   2.742   0.013   4.273
   34        1.518   2.743   0.012   4.273
   35        1.518   2.742   0.012   4.272
   36        1.514   2.742   0.017   4.274
   37        1.514   2.742   0.017   4.273
   38        1.518   2.742   0.012   4.272
   39        1.518   2.742   0.011   4.271
   40        1.518   2.742   0.011   4.271
   41        1.518   2.742   0.012   4.272
   42        1.514   2.742   0.017   4.273
   43        1.518   2.742   0.011   4.271
   44        1.518   2.742   0.011   4.271
   45        1.518   2.742   0.012   4.273
   46        1.518   2.742   0.012   4.273
   47        1.514   2.742   0.017   4.273
   48        1.518   2.742   0.012   4.272
--------------------------------------------------
tot         65.134 100.206  76.093 241.434
 


--------------------------------------------------------------------------------------------------------



  FREE ENERGIE OF THE ION-ELECTRON SYSTEM (eV)
  ---------------------------------------------------
  free  energy   TOTEN  =      -119.96586534 eV

  energy  without entropy=     -119.96586534  energy(sigma->0) =     -119.96586534
 


--------------------------------------------------------------------------------------------------------




--------------------------------------------------------------------------------------------------------


 writing wavefunctions
     LOOP+:  cpu time  116.3212: real time  116.5813
    4ORBIT:  cpu time    0.0000: real time    0.0000
 


 total charge     
 
# of ion       s       p       d       tot
------------------------------------------
    1        0.239   0.148   9.323   9.709
    2        0.241   0.151   9.320   9.713
    3        0.241   0.151   9.320   9.712
    4        0.241   0.152   9.320   9.713
    5        0.241   0.152   9.320   9.713
    6        0.252   0.158   9.313   9.722
    7        0.252   0.158   9.313   9.722
    8        0.238   0.146   9.323   9.708
    9        1.833   1.401   0.135   3.369
   10        1.835   1.397   0.139   3.371
   11        1.834   1.401   0.138   3.373
   12        1.834   1.401   0.138   3.373
   13        1.835   1.397   0.139   3.371
   14        1.834   1.401   0.138   3.373
   15        1.834   1.401   0.138   3.373
   16        1.833   1.401   0.135   3.369
   17        1.516   2.744   0.015   4.274
   18        1.518   2.745   0.012   4.275
   19        1.515   2.743   0.015   4.272
   20        1.514   2.743   0.015   4.272
   21        1.513   2.748   0.016   4.276
   22        1.513   2.747   0.016   4.276
   23        1.517   2.745   0.013   4.275
   24        1.516   2.743   0.015   4.274
   25        1.513   2.747   0.016   4.276
   26        1.513   2.747   0.016   4.276
   27        1.516   2.744   0.015   4.274
   28        1.517   2.745   0.013   4.275
   29        1.517   2.745   0.013   4.275
   30        1.516   2.743   0.015   4.274
   31        1.514   2.743   0.015   4.272
   32        1.514   2.743   0.015   4.272
   33        1.518   2.742   0.013   4.273
   34        1.518   2.743   0.012   4.273
   35        1.518   2.742   0.012   4.272
   36        1.514   2.742   0.017   4.274
   37        1.514   2.742   0.017   4.273
   38        1.518   2.742   0.012   4.272
   39        1.518   2.742   0.011   4.271
   40        1.518   2.742   0.011   4.271
   41        1.518   2.742   0.012   4.272
   42        1.514   2.742   0.017   4.273
   43        1.518   2.742   0.011   4.271
   44        1.518   2.742   0.011   4.271
   45        1.518   2.742   0.012   4.273
   46        1.518   2.742   0.012   4.273
   47        1.514   2.742   0.017   4.273
   48        1.518   2.742   0.012   4.272
--------------------------------------------------
tot         65.134 100.206  76.093 241.434
 
 BZINTS: Fermi energy:    2.092968;  352.000000 electrons
         Band energy:-0.747631E+03;  BLOECHL correction:    0.000000

 total amount of memory used by VASP MPI-rank0  2761676. kBytes
=======================================================================

   base      :      30000. kBytes
   nonl-proj :     301348. kBytes
   fftplans  :      34720. kBytes
   grid      :      70000. kBytes
   one-center:        746. kBytes
   wavefun   :    2324862. kBytes
 
  
  
 General timing and accounting informations for this job:
 ========================================================
  
                  Total CPU time used (sec):      156.173
                            User time (sec):      151.057
                          System time (sec):        5.117
                         Elapsed time (sec):      160.409
  
                   Maximum memory used (kb):     4319352.
                   Average memory used (kb):           0.
  
                          Minor page faults:       421604
                          Major page faults:           35
                 Voluntary context switches:         2777
