 vasp.6.1.0 28Jan20 (build Jan 13 2021 21:44:47) complex                        
  
 executed on             LinuxIFC date 2021.09.12  19:26:46
 running on    9 total cores
 distrk:  each k-point on    1 cores,    9 groups
 distr:  one band on NCORE=   1 cores,    1 groups


--------------------------------------------------------------------------------------------------------


 INCAR:
 POTCAR:    PAW_PBE Ag 02Apr2005                  
 POTCAR:    PAW_PBE Bi 08Apr2002                  
 POTCAR:    PAW_PBE I 08Apr2002                   
 -----------------------------------------------------------------------------
|                                                                             |
|           W    W    AA    RRRRR   N    N  II  N    N   GGGG   !!!           |
|           W    W   A  A   R    R  NN   N  II  NN   N  G    G  !!!           |
|           W    W  A    A  R    R  N N  N  II  N N  N  G       !!!           |
|           W WW W  AAAAAA  RRRRR   N  N N  II  N  N N  G  GGG   !            |
|           WW  WW  A    A  R   R   N   NN  II  N   NN  G    G                |
|           W    W  A    A  R    R  N    N  II  N    N   GGGG   !!!           |
|                                                                             |
|     For optimal performance we recommend to set                             |
|       NCORE = 4 - approx SQRT(number of cores).                             |
|     NCORE specifies how many cores store one orbital (NPAR=cpu/NCORE).      |
|     This setting can greatly improve the performance of VASP for DFT.       |
|     The default, NCORE=1 might be grossly inefficient on modern             |
|     multi-core architectures or massively parallel machines. Do your        |
|     own testing!!!!                                                         |
|     Unfortunately you need to use the default for GW and RPA                |
|     calculations (for HF NCORE is supported but not extensively tested      |
|     yet).                                                                   |
|                                                                             |
 -----------------------------------------------------------------------------

 POTCAR:    PAW_PBE Ag 02Apr2005                  
   VRHFIN =Ag : s1 d10                                                                              
   LEXCH  = PE                                                                                      
   EATOM  =  1037.2675 eV,   76.2370 Ry                                                             
                                                                                                    
   TITEL  = PAW_PBE Ag 02Apr2005                                                                    
   LULTRA =        F    use ultrasoft PP ?                                                          
   IUNSCR =        1    unscreen: 0-lin 1-nonlin 2-no                                               
   RPACOR =    2.000    partial core radius                                                         
   POMASS =  107.868; ZVAL   =   11.000    mass and valenz                                          
   RCORE  =    2.500    outmost cutoff radius                                                       
   RWIGS  =    2.840; RWIGS  =    1.503    wigner-seitz radius (au A)                               
   ENMAX  =  249.844; ENMIN  =  187.383 eV                                                          
   ICORE  =        3    local potential                                                             
   LCOR   =        T    correct aug charges                                                         
   LPAW   =        T    paw PP                                                                      
   EAUG   =  412.496                                                                                
   DEXC   =    0.000                                                                                
   RMAX   =    2.560    core radius for proj-oper                                                   
   RAUG   =    1.300    factor for augmentation sphere                                              
   RDEP   =    2.576    radius for radial grids                                                     
   RDEPT  =    2.072    core radius for aug-charge                                                  
                                                                                                    
   Atomic configuration                                                                             
   12 entries                                                                                       
     n  l   j            E        occ.                                                              
     1  0  0.50    -25324.9161   2.0000                                                             
     2  0  0.50     -3728.5341   2.0000                                                             
     2  1  1.50     -3344.0404   6.0000                                                             
     3  0  0.50      -683.5581   2.0000                                                             
     3  1  1.50      -557.3225   6.0000                                                             
     3  2  2.50      -358.3853  10.0000                                                             
     4  0  0.50       -95.0341   2.0000                                                             
     4  1  1.50       -58.5511   6.0000                                                             
     4  2  2.50        -7.4440  10.0000                                                             
     5  0  0.50        -4.4045   1.0000                                                             
     5  1  0.50        -1.3606   0.0000                                                             
     4  3  2.50        -1.3606   0.0000                                                             
   Description                                                                                      
     l       E           TYP  RCUT    TYP  RCUT                                                     
     2     -7.4439781     23  2.400                                                                 
     2     -8.8045607     23  2.400                                                                 
     0     -4.4044681     23  2.400                                                                 
     0      1.9520038     23  2.400                                                                 
     1     -1.3605826     23  2.500                                                                 
     1     27.2116520     23  2.500                                                                 
     3     -4.0817478     23  2.400                                                                 
  local pseudopotential read in
  partial core-charges read in
  partial kinetic energy density read in
  atomic valenz-charges read in
  non local Contribution for L=           2  read in
    real space projection operators read in
  non local Contribution for L=           2  read in
    real space projection operators read in
  non local Contribution for L=           0  read in
    real space projection operators read in
  non local Contribution for L=           0  read in
    real space projection operators read in
  non local Contribution for L=           1  read in
    real space projection operators read in
  non local Contribution for L=           1  read in
    real space projection operators read in
    PAW grid and wavefunctions read in
 
   number of l-projection  operators is LMAX  =           6
   number of lm-projection operators is LMMAX =          18
 
 POTCAR:    PAW_PBE Bi 08Apr2002                  
   VRHFIN =Bi:                                                                                      
   LEXCH  = PE                                                                                      
   EATOM  =   150.8133 eV,   11.0845 Ry                                                             
                                                                                                    
   TITEL  = PAW_PBE Bi 08Apr2002                                                                    
   LULTRA =        F    use ultrasoft PP ?                                                          
   IUNSCR =        1    unscreen: 0-lin 1-nonlin 2-no                                               
   RPACOR =    2.200    partial core radius                                                         
   POMASS =  208.980; ZVAL   =    5.000    mass and valenz                                          
   RCORE  =    3.000    outmost cutoff radius                                                       
   RWIGS  =    3.090; RWIGS  =    1.635    wigner-seitz radius (au A)                               
   ENMAX  =  105.037; ENMIN  =   78.777 eV                                                          
   ICORE  =        3    local potential                                                             
   LCOR   =        T    correct aug charges                                                         
   LPAW   =        T    paw PP                                                                      
   EAUG   =  265.427                                                                                
   DEXC   =    0.000                                                                                
   RMAX   =    3.067    core radius for proj-oper                                                   
   RAUG   =    1.300    factor for augmentation sphere                                              
   RDEP   =    3.012    radius for radial grids                                                     
   RDEPT  =    2.604    core radius for aug-charge                                                  
                                                                                                    
   Atomic configuration                                                                             
   17 entries                                                                                       
     n  l   j            E        occ.                                                              
     1  0  0.50    -90639.6582   2.0000                                                             
     2  0  0.50    -16282.4667   2.0000                                                             
     2  1  1.50    -13922.8287   6.0000                                                             
     3  0  0.50     -3930.4763   2.0000                                                             
     3  1  1.50     -3256.7013   6.0000                                                             
     3  2  2.50     -2581.6169  10.0000                                                             
     4  0  0.50      -902.2614   2.0000                                                             
     4  1  1.50      -681.5915   6.0000                                                             
     4  2  2.50      -429.8249  10.0000                                                             
     4  3  3.50      -152.6004  14.0000                                                             
     5  0  0.50      -157.7156   2.0000                                                             
     5  1  1.50       -95.8054   6.0000                                                             
     5  2  2.50       -27.0806  10.0000                                                             
     6  0  0.50       -14.4732   2.0000                                                             
     6  1  1.50        -4.5702   3.0000                                                             
     6  2  2.50        -2.7212   0.0000                                                             
     5  3  2.50        -2.7212   0.0000                                                             
   Description                                                                                      
     l       E           TYP  RCUT    TYP  RCUT                                                     
     0    -14.4732299     23  3.000                                                                 
     0    -12.2452434     23  3.000                                                                 
     1     -4.5701666     23  3.000                                                                 
     1    -13.6058260     23  3.000                                                                 
     2     -2.7211652     23  3.000                                                                 
     3     -1.3605826      7  3.000                                                                 
  local pseudopotential read in
  partial core-charges read in
  partial kinetic energy density read in
  kinetic energy density of atom read in
  atomic valenz-charges read in
  non local Contribution for L=           0  read in
    real space projection operators read in
  non local Contribution for L=           0  read in
    real space projection operators read in
  non local Contribution for L=           1  read in
    real space projection operators read in
  non local Contribution for L=           1  read in
    real space projection operators read in
  non local Contribution for L=           2  read in
    real space projection operators read in
    PAW grid and wavefunctions read in
 
   number of l-projection  operators is LMAX  =           5
   number of lm-projection operators is LMMAX =          13
 
 POTCAR:    PAW_PBE I 08Apr2002                   
   VRHFIN =I : s2p5                                                                                 
   LEXCH  = PE                                                                                      
   EATOM  =   315.8678 eV,   23.2156 Ry                                                             
                                                                                                    
   TITEL  = PAW_PBE I 08Apr2002                                                                     
   LULTRA =        F    use ultrasoft PP ?                                                          
   IUNSCR =        1    unscreen: 0-lin 1-nonlin 2-no                                               
   RPACOR =    2.200    partial core radius                                                         
   POMASS =  126.904; ZVAL   =    7.000    mass and valenz                                          
   RCORE  =    2.300    outmost cutoff radius                                                       
   RWIGS  =    2.810; RWIGS  =    1.487    wigner-seitz radius (au A)                               
   ENMAX  =  175.647; ENMIN  =  131.735 eV                                                          
   ICORE  =        3    local potential                                                             
   LCOR   =        T    correct aug charges                                                         
   LPAW   =        T    paw PP                                                                      
   EAUG   =  370.139                                                                                
   DEXC   =    0.000                                                                                
   RMAX   =    2.359    core radius for proj-oper                                                   
   RAUG   =    1.300    factor for augmentation sphere                                              
   RDEP   =    2.392    radius for radial grids                                                     
   RDEPT  =    2.170    core radius for aug-charge                                                  
                                                                                                    
   Atomic configuration                                                                             
   13 entries                                                                                       
     n  l   j            E        occ.                                                              
     1  0  0.50    -32976.3739   2.0000                                                             
     2  0  0.50     -5094.5933   2.0000                                                             
     2  1  1.50     -4572.0131   6.0000                                                             
     3  0  0.50     -1028.2813   2.0000                                                             
     3  1  1.50      -859.0250   6.0000                                                             
     3  2  2.50      -605.7620  10.0000                                                             
     4  0  0.50      -180.5540   2.0000                                                             
     4  1  1.50      -127.5306   6.0000                                                             
     4  2  2.50       -50.2720  10.0000                                                             
     5  0  0.50       -17.4058   2.0000                                                             
     5  1  0.50        -7.0851   5.0000                                                             
     5  2  1.50        -7.0750   0.0000                                                             
     4  3  2.50        -7.0750   0.0000                                                             
   Description                                                                                      
     l       E           TYP  RCUT    TYP  RCUT                                                     
     0    -17.4058016     23  2.300                                                                 
     0    -18.7663842     23  2.300                                                                 
     1     -7.0850686     23  2.300                                                                 
     1     -4.2150896     23  2.300                                                                 
     2     -7.0750295     23  2.300                                                                 
     3     -1.3605826     23  2.300                                                                 
  local pseudopotential read in
  partial core-charges read in
  partial kinetic energy density read in
  atomic valenz-charges read in
  non local Contribution for L=           0  read in
    real space projection operators read in
  non local Contribution for L=           0  read in
    real space projection operators read in
  non local Contribution for L=           1  read in
    real space projection operators read in
  non local Contribution for L=           1  read in
    real space projection operators read in
  non local Contribution for L=           2  read in
    real space projection operators read in
    PAW grid and wavefunctions read in
 
   number of l-projection  operators is LMAX  =           5
   number of lm-projection operators is LMMAX =          13
 
 -----------------------------------------------------------------------------
|                                                                             |
|               ----> ADVICE to this user running VASP <----                  |
|                                                                             |
|     You have a (more or less) 'large supercell' and for larger cells it     |
|     might be more efficient to use real-space projection operators.         |
|     Therefore, try LREAL= Auto in the INCAR file.                           |
|     Mind: For very accurate calculation, you might also keep the            |
|     reciprocal projection scheme (i.e. LREAL=.FALSE.).                      |
|                                                                             |
 -----------------------------------------------------------------------------

  PAW_PBE Ag 02Apr2005                  :
 energy of atom  1       EATOM=-1037.2675
 kinetic energy error for atom=    0.0686 (will be added to EATOM!!)
  PAW_PBE Bi 08Apr2002                  :
 energy of atom  2       EATOM= -150.8133
 kinetic energy error for atom=    0.0004 (will be added to EATOM!!)
  PAW_PBE I 08Apr2002                   :
 energy of atom  3       EATOM= -315.8678
 kinetic energy error for atom=    0.0044 (will be added to EATOM!!)
 
 
 POSCAR: Generation Seed Number
  positions in direct lattice
  velocities in cartesian coordinates
 exchange correlation table for  LEXCH =        8
   RHO(1)=    0.500       N(1)  =     2000
   RHO(2)=  100.500       N(2)  =     4000
 


--------------------------------------------------------------------------------------------------------


 ion  position               nearest neighbor table
   1  0.235  0.265  0.000-  19 2.98  25 2.98  41 3.05  42 3.05  29 3.37  17 3.38
   2  0.735  0.766  0.001-  21 2.97  31 2.98  47 3.05  48 3.05  27 3.37  23 3.39
   3  0.016  0.265  0.251-  41 2.97  35 2.97  26 3.06  25 3.07  33 3.37  45 3.38
   4  0.016  0.484  0.501-  26 2.97  20 2.97  36 3.05  35 3.06  24 3.39  28 3.39
   5  0.517  0.984  0.500-  22 2.97  32 2.97  37 3.05  38 3.06  30 3.39  18 3.40
   6  0.735  0.984  0.751-  48 2.97  38 2.97  21 3.07  22 3.07  34 3.37  46 3.37
   7  0.516  0.765  0.251-  47 2.97  37 2.98  32 3.06  31 3.07  39 3.37  43 3.38
   8  0.234  0.484  0.750-  42 2.97  36 2.97  20 3.06  19 3.07  40 3.38  44 3.39
   9  0.997  0.003  0.000-  25 3.05  21 3.05  33 3.12  34 3.12  17 3.20  27 3.21
  10  0.497  0.503  0.000-  31 3.05  19 3.05  40 3.12  39 3.12  23 3.20  29 3.21
  11  0.997  0.748  0.750-  36 3.05  48 3.06  27 3.12  28 3.12  44 3.20  34 3.20
  12  0.252  0.003  0.250-  37 3.05  41 3.06  18 3.12  17 3.12  43 3.20  33 3.21
  13  0.752  0.503  0.250-  35 3.05  47 3.06  23 3.12  24 3.12  45 3.20  39 3.20
  14  0.497  0.247  0.750-  38 3.05  42 3.06  29 3.12  30 3.12  46 3.20  40 3.21
  15  0.753  0.247  0.500-  22 3.05  26 3.05  45 3.12  46 3.12  30 3.20  24 3.20
  16  0.253  0.747  0.500-  32 3.05  20 3.05  44 3.12  43 3.12  18 3.20  28 3.20
  17  0.250  0.999  0.004-  12 3.12   9 3.20   1 3.38
  18  0.249  1.000  0.496-  12 3.12  16 3.20   5 3.40
  19  0.257  0.499  0.990-   1 2.98  10 3.05   8 3.07
  20  0.249  0.507  0.510-   4 2.97  16 3.05   8 3.06
  21  0.756  0.999  0.991-   2 2.97   9 3.05   6 3.07
  22  0.749  0.007  0.510-   5 2.97  15 3.05   6 3.07
  23  0.750  0.499  0.005-  13 3.12  10 3.20   2 3.39
  24  0.749  0.500  0.496-  13 3.12  15 3.20   4 3.39
  25  0.002  0.243  0.010-   1 2.98   9 3.05   3 3.07
  26  0.993  0.251  0.491-   4 2.97  15 3.05   3 3.06
  27  0.001  0.750  0.996-  11 3.12   9 3.21   2 3.37
  28  1.000  0.751  0.505-  11 3.12  16 3.20   4 3.39
  29  0.501  0.250  0.996-  14 3.12  10 3.21   1 3.37
  30  0.500  0.251  0.504-  14 3.12  15 3.20   5 3.39
  31  0.502  0.743  0.010-   2 2.98  10 3.05   7 3.07
  32  0.493  0.751  0.491-   5 2.97  16 3.05   7 3.06
  33  1.000  0.000  0.246-   9 3.12  12 3.21   3 3.37
  34  1.000  0.000  0.755-   9 3.12  11 3.20   6 3.37
  35  0.993  0.498  0.261-   3 2.97  13 3.05   4 3.06
  36  0.001  0.507  0.740-   8 2.97   4 3.05  11 3.05
  37  0.493  0.998  0.261-   7 2.98   5 3.05  12 3.05
  38  0.502  0.007  0.739-   6 2.97  14 3.05   5 3.06
  39  0.500  0.500  0.246-  10 3.12  13 3.20   7 3.37
  40  0.500  0.500  0.754-  10 3.12  14 3.21   8 3.38
  41  0.249  0.243  0.239-   3 2.97   1 3.05  12 3.06
  42  0.256  0.251  0.761-   8 2.97   1 3.05  14 3.06
  43  0.250  0.750  0.254-  16 3.12  12 3.20   7 3.38
  44  0.250  0.750  0.746-  16 3.12  11 3.20   8 3.39
  45  0.750  0.250  0.255-  15 3.12  13 3.20   3 3.38
  46  0.749  0.250  0.746-  15 3.12  14 3.20   6 3.37
  47  0.749  0.743  0.240-   7 2.97   2 3.05  13 3.06
  48  0.757  0.751  0.761-   6 2.97   2 3.05  11 3.06
 
 -----------------------------------------------------------------------------
|                                                                             |
|           W    W    AA    RRRRR   N    N  II  N    N   GGGG   !!!           |
|           W    W   A  A   R    R  NN   N  II  NN   N  G    G  !!!           |
|           W    W  A    A  R    R  N N  N  II  N N  N  G       !!!           |
|           W WW W  AAAAAA  RRRRR   N  N N  II  N  N N  G  GGG   !            |
|           WW  WW  A    A  R   R   N   NN  II  N   NN  G    G                |
|           W    W  A    A  R    R  N    N  II  N    N   GGGG   !!!           |
|                                                                             |
|     The determination of the symmetry of your systems shows a strong        |
|     dependence on the tolerance parameter SYMPREC. This is often the        |
|     result of "noise" in the structural parameters (lattice vectors         |
|     and/or ionic positions). Set NWRITE=3 for more details.                 |
|                                                                             |
 -----------------------------------------------------------------------------

  LATTYP: Found a base centered monoclinic cell.
 ALAT       =    53.8089966858
 B/A-ratio  =     0.3332837218
 C/A-ratio  =     0.2357200875
 COS(beta)  =    -0.9428052864
  
  Lattice vectors:
  
 A1 = (   0.0012935081, -12.6801141358,  25.3667188492)
 A2 = ( -12.6799829727,   0.0006383634,  25.3667991831)
 A3 = (  -0.0011949933,  -0.0009169518, -12.6838613151)


Analysis of symmetry for initial positions (statically):
=====================================================================
 Subroutine PRICEL returns:
 Original cell was already a primitive cell.
 

 Routine SETGRP: Setting up the symmetry group for a 
 base centered monoclinic supercell.


 Subroutine GETGRP returns: Found  1 space group operations
 (whereof  1 operations were pure point group operations)
 out of a pool of  4 trial point group operations.


The static configuration has the point symmetry C_1 .


Analysis of symmetry for dynamics (positions and initial velocities):
=====================================================================
 Subroutine PRICEL returns:
 Original cell was already a primitive cell.
 

 Routine SETGRP: Setting up the symmetry group for a 
 base centered monoclinic supercell.


 Subroutine GETGRP returns: Found  1 space group operations
 (whereof  1 operations were pure point group operations)
 out of a pool of  4 trial point group operations.


The dynamic configuration has the point symmetry C_1 .


 Subroutine INISYM returns: Found  1 space group operations
 (whereof  1 operations are pure point group operations),
 and found     1 'primitive' translations


----------------------------------------------------------------------------------------

                                     Primitive cell                                     

  volume of cell :    2040.0366

  direct lattice vectors                    reciprocal lattice vectors
    12.682372959  0.001195540  0.000923447     0.078849598 -0.000006817 -0.000007428
     0.001096479 12.681948039  0.001003781    -0.000007433  0.078852240 -0.000005700
     0.001194993  0.000916952 12.683861315    -0.000005740 -0.000006240  0.078840346

  length of vectors
    12.682373049 12.681948127 12.683861405     0.078849599  0.078852241  0.078840346

  position of ions in fractional coordinates (direct lattice)
     0.235402551  0.265268400  0.000391230
     0.735280219  0.765942161  0.000523699
     0.016200764  0.265372223  0.250816404
     0.015694376  0.483717015  0.500912253
     0.516616075  0.983655084  0.499646070
     0.734651492  0.984277658  0.750609855
     0.515787511  0.764548139  0.250619686
     0.234247034  0.483804592  0.750246631
     0.997046584  0.002957391  0.000427672
     0.497209262  0.502793861  0.000157666
     0.997211364  0.747535766  0.750396125
     0.252336104  0.002598730  0.250208470
     0.752427698  0.502598500  0.250329922
     0.497076511  0.247306869  0.750030827
     0.752618745  0.247107452  0.500350449
     0.252518283  0.747403745  0.500318634
     0.249633932  0.998981884  0.004437989
     0.249066871  0.999960417  0.495882511
     0.256618865  0.498720482  0.990451145
     0.248576900  0.506777559  0.510155047
     0.756473929  0.999187001  0.990862225
     0.749128075  0.006530136  0.509824145
     0.749804823  0.498811173  0.004672579
     0.749170790  0.499699375  0.496175128
     0.001766054  0.243362658  0.010208015
     0.993269814  0.250911440  0.490825722
     0.000689875  0.750089838  0.996041928
     0.999936487  0.750560938  0.504562367
     0.500830124  0.249931324  0.995744919
     0.500105113  0.250656177  0.504269796
     0.501830087  0.743180567  0.009934449
     0.493121009  0.750926764  0.490660370
     0.999646747  0.000146099  0.246119047
     0.999617849  0.000174856  0.754545828
     0.993002161  0.498290041  0.261252018
     0.001269776  0.506926254  0.740021187
     0.492900971  0.997947399  0.260650112
     0.501553384  0.006804681  0.739132159
     0.499791756  0.499591706  0.245961682
     0.499894626  0.500023066  0.754389208
     0.248841706  0.243370180  0.239489233
     0.256361505  0.251186143  0.761012121
     0.249984349  0.750246691  0.254462506
     0.249594362  0.750245735  0.746037237
     0.749766012  0.250253468  0.254602580
     0.749432303  0.249641905  0.746161591
     0.748593913  0.743332174  0.239531065
     0.756548963  0.751494177  0.761205203

  ion indices of the primitive-cell ions
   primitive index   ion index
                 1           1
                 2           2
                 3           3
                 4           4
                 5           5
                 6           6
                 7           7
                 8           8
                 9           9
                10          10
                11          11
                12          12
                13          13
                14          14
                15          15
                16          16
                17          17
                18          18
                19          19
                20          20
                21          21
                22          22
                23          23
                24          24
                25          25
                26          26
                27          27
                28          28
                29          29
                30          30
                31          31
                32          32
                33          33
                34          34
                35          35
                36          36
                37          37
                38          38
                39          39
                40          40
                41          41
                42          42
                43          43
                44          44
                45          45
                46          46
                47          47
                48          48

----------------------------------------------------------------------------------------

 
 
 KPOINTS: agbii                                   

Automatic generation of k-mesh.
Space group operators:
 irot       det(A)        alpha          n_x          n_y          n_z        tau_x        tau_y        tau_z
    1     1.000000     0.000000     1.000000     0.000000     0.000000     0.000000     0.000000     0.000000
 TETIRR: Found    192 inequivalent tetrahedra from      384
 
 Subroutine IBZKPT returns following result:
 ===========================================
 
 Found     36 irreducible k-points:
 
 Following reciprocal coordinates:
            Coordinates               Weight
  0.000000  0.000000  0.000000      1.000000
  0.250000 -0.000000  0.000000      2.000000
 -0.000000 -0.250000 -0.000000      2.000000
  0.500000 -0.000000 -0.000000      1.000000
  0.000000  0.500000  0.000000      1.000000
  0.250000  0.250000 -0.000000      2.000000
  0.500000  0.250000  0.000000      2.000000
 -0.250000  0.500000 -0.000000      2.000000
 -0.250000  0.250000  0.000000      2.000000
  0.500000  0.500000 -0.000000      1.000000
  0.000000 -0.000000  0.250000      2.000000
  0.250000 -0.000000  0.250000      2.000000
 -0.000000 -0.250000 -0.250000      2.000000
  0.500000 -0.000000  0.250000      2.000000
  0.000000  0.500000 -0.250000      2.000000
 -0.250000  0.000000  0.250000      2.000000
  0.000000  0.250000 -0.250000      2.000000
  0.250000  0.250000  0.250000      2.000000
  0.500000  0.250000  0.250000      2.000000
 -0.250000  0.500000 -0.250000      2.000000
 -0.250000  0.250000  0.250000      2.000000
 -0.250000  0.250000 -0.250000      2.000000
  0.500000  0.500000  0.250000      2.000000
 -0.250000  0.500000  0.250000      2.000000
  0.500000  0.250000 -0.250000      2.000000
 -0.250000 -0.250000  0.250000      2.000000
  0.000000 -0.000000  0.500000      1.000000
  0.250000 -0.000000  0.500000      2.000000
  0.000000 -0.250000  0.500000      2.000000
  0.500000 -0.000000  0.500000      1.000000
  0.000000  0.500000  0.500000      1.000000
  0.250000  0.250000  0.500000      2.000000
  0.500000  0.250000  0.500000      2.000000
 -0.250000  0.500000  0.500000      2.000000
 -0.250000  0.250000  0.500000      2.000000
  0.500000  0.500000  0.500000      1.000000
 
 Following cartesian coordinates:
            Coordinates               Weight
  0.000000  0.000000  0.000000      1.000000
  0.019712 -0.000002 -0.000002      2.000000
  0.000002 -0.019713  0.000001      2.000000
  0.039425 -0.000003 -0.000004      1.000000
 -0.000004  0.039426 -0.000003      1.000000
  0.019711  0.019711 -0.000003      2.000000
  0.039423  0.019710 -0.000005      2.000000
 -0.019716  0.039428 -0.000001      2.000000
 -0.019714  0.019715  0.000000      2.000000
  0.039421  0.039423 -0.000007      1.000000
 -0.000001 -0.000002  0.019710      2.000000
  0.019711 -0.000003  0.019708      2.000000
  0.000003 -0.019712 -0.019709      2.000000
  0.039423 -0.000005  0.019706      2.000000
 -0.000002  0.039428 -0.019713      2.000000
 -0.019714  0.000000  0.019712      2.000000
 -0.000000  0.019715 -0.019712      2.000000
  0.019709  0.019710  0.019707      2.000000
  0.039422  0.019708  0.019705      2.000000
 -0.019715  0.039429 -0.019711      2.000000
 -0.019716  0.019713  0.019711      2.000000
 -0.019713  0.019716 -0.019710      2.000000
  0.039420  0.039421  0.019704      2.000000
 -0.019718  0.039426  0.019709      2.000000
  0.039424  0.019711 -0.019715      2.000000
 -0.019712 -0.019713  0.019713      2.000000
 -0.000003 -0.000003  0.039420      1.000000
  0.019710 -0.000005  0.039418      2.000000
 -0.000001 -0.019716  0.039422      2.000000
  0.039422 -0.000007  0.039416      1.000000
 -0.000007  0.039423  0.039417      1.000000
  0.019708  0.019708  0.039417      2.000000
  0.039420  0.019707  0.039415      2.000000
 -0.019719  0.039425  0.039419      2.000000
 -0.019717  0.019712  0.039421      2.000000
  0.039418  0.039420  0.039414      1.000000
 


--------------------------------------------------------------------------------------------------------




 Dimension of arrays:
   k-points           NKPTS =     36   k-points in BZ     NKDIM =     36   number of bands    NBANDS=    211
   number of dos      NEDOS =   3000   number of ions     NIONS =     48
   non local maximal  LDIM  =      6   non local SUM 2l+1 LMDIM =     18
   total plane-waves  NPLWV = 125000
   max r-space proj   IRMAX =      1   max aug-charges    IRDMAX=   6036
   dimension x,y,z NGX =    50 NGY =   50 NGZ =   50
   dimension x,y,z NGXF=   100 NGYF=  100 NGZF=  100
   support grid    NGXF=   100 NGYF=  100 NGZF=  100
   ions per type =               8   8  32
   NGX,Y,Z   is equivalent  to a cutoff of   6.55,  6.55,  6.55 a.u.
   NGXF,Y,Z  is equivalent  to a cutoff of  13.11, 13.11, 13.11 a.u.

 SYSTEM =  unknown system                          
 POSCAR =  Generation Seed Number                  

 Startparameter for this run:
   NWRITE =      2    write-flag & timer
   PREC   = normal    normal or accurate (medium, high low for compatibility)
   ISTART =      1    job   : 0-new  1-cont  2-samecut
   ICHARG =      1    charge: 1-file 2-atom 10-const
   ISPIN  =      1    spin polarized calculation?
   LNONCOLLINEAR =      F non collinear calculations
   LSORBIT =      F    spin-orbit coupling
   INIWAV =      1    electr: 0-lowe 1-rand  2-diag
   LASPH  =      F    aspherical Exc in radial PAW
   METAGGA=      F    non-selfconsistent MetaGGA calc.

 Electronic Relaxation 1
   ENCUT  =  250.0 eV  18.37 Ry    4.29 a.u.  16.35 16.35 16.35*2*pi/ulx,y,z
   ENINI  =  250.0     initial cutoff
   ENAUG  =  412.5 eV  augmentation charge cutoff
   NELM   =     60;   NELMIN=  2; NELMDL=  0     # of ELM steps 
   EDIFF  = 0.1E-05   stopping-criterion for ELM
   LREAL  =      F    real-space projection
   NLSPLINE    = F    spline interpolate recip. space projectors
   LCOMPAT=      F    compatible to vasp.4.4
   GGA_COMPAT  = T    GGA compatible to vasp.4.4-vasp.4.6
   LMAXPAW     = -100 max onsite density
   LMAXMIX     =    4 max onsite mixed and CHGCAR
   VOSKOWN=      0    Vosko Wilk Nusair interpolation
   ROPT   =    0.00000   0.00000   0.00000
 Ionic relaxation
   EDIFFG = -.1E-01   stopping-criterion for IOM
   NSW    =      0    number of steps for IOM
   NBLOCK =      1;   KBLOCK =      1    inner block; outer block 
   IBRION =     -1    ionic relax: 0-MD 1-quasi-New 2-CG
   NFREE  =      0    steps in history (QN), initial steepest desc. (CG)
   ISIF   =     -1    stress and relaxation
   IWAVPR =     10    prediction:  0-non 1-charg 2-wave 3-comb
   ISYM   =      2    0-nonsym 1-usesym 2-fastsym
   LCORR  =      T    Harris-Foulkes like correction to forces

   POTIM  = 0.5000    time-step for ionic-motion
   TEIN   =    0.0    initial temperature
   TEBEG  =    0.0;   TEEND  =   0.0 temperature during run
   SMASS  =  -3.00    Nose mass-parameter (am)
   estimated Nose-frequenzy (Omega)   =  0.10E-29 period in steps = 0.13E+47 mass=  -0.368E-26a.u.
   SCALEE = 1.0000    scale energy and forces
   NPACO  =    256;   APACO  = 16.0  distance and # of slots for P.C.
   PSTRESS=    0.0 pullay stress

  Mass of Ions in am
   POMASS = 107.87208.98126.90
  Ionic Valenz
   ZVAL   =  11.00  5.00  7.00
  Atomic Wigner-Seitz radii
   RWIGS  =  -1.00 -1.00 -1.00
  virtual crystal weights 
   VCA    =   1.00  1.00  1.00
   NELECT =     352.0000    total number of electrons
   NUPDOWN=      -1.0000    fix difference up-down

 DOS related values:
   EMIN   =  10.00;   EMAX   =-10.00  energy-range for DOS
   EFERMI =   0.00
   ISMEAR =    -5;   SIGMA  =   0.20  broadening in eV -4-tet -1-fermi 0-gaus

 Electronic relaxation 2 (details)
   IALGO  =     38    algorithm
   LDIAG  =      T    sub-space diagonalisation (order eigenvalues)
   LSUBROT=      F    optimize rotation matrix (better conditioning)
   TURBO    =      0    0=normal 1=particle mesh
   IRESTART =      0    0=no restart 2=restart with 2 vectors
   NREBOOT  =      0    no. of reboots
   NMIN     =      0    reboot dimension
   EREF     =   0.00    reference energy to select bands
   IMIX   =      4    mixing-type and parameters
     AMIX     =   0.40;   BMIX     =  1.00
     AMIX_MAG =   1.60;   BMIX_MAG =  1.00
     AMIN     =   0.10
     WC   =   100.;   INIMIX=   1;  MIXPRE=   1;  MAXMIX= -45

 Intra band minimization:
   WEIMIN = 0.0000     energy-eigenvalue tresh-hold
   EBREAK =  0.12E-08  absolut break condition
   DEPER  =   0.30     relativ break condition  

   TIME   =   0.40     timestep for ELM

  volume/ion in A,a.u.               =      42.50       286.81
  Fermi-wavevector in a.u.,A,eV,Ry     =   0.911401  1.722299 11.301716  0.830653
  Thomas-Fermi vector in A             =   2.035676
 
 Write flags
   LWAVE        =      T    write WAVECAR
   LDOWNSAMPLE  =      F    k-point downsampling of WAVECAR
   LCHARG       =      T    write CHGCAR
   LVTOT        =      F    write LOCPOT, total local potential
   LVHAR        =      F    write LOCPOT, Hartree potential only
   LELF         =      F    write electronic localiz. function (ELF)
   LORBIT       =     10    0 simple, 1 ext, 2 COOP (PROOUT), +10 PAW based schemes


 Dipole corrections
   LMONO  =      F    monopole corrections only (constant potential shift)
   LDIPOL =      F    correct potential (dipole corrections)
   IDIPOL =      0    1-x, 2-y, 3-z, 4-all directions 
   EPSILON=  1.0000000 bulk dielectric constant

 Exchange correlation treatment:
   GGA     =    --    GGA type
   LEXCH   =     8    internal setting for exchange type
   VOSKOWN=      0    Vosko Wilk Nusair interpolation
   LHFCALC =     F    Hartree Fock is set to
   LHFONE  =     F    Hartree Fock one center treatment
   AEXX    =    0.0000 exact exchange contribution

 Linear response parameters
   LEPSILON=     F    determine dielectric tensor
   LRPA    =     F    only Hartree local field effects (RPA)
   LNABLA  =     F    use nabla operator in PAW spheres
   LVEL    =     F    velocity operator in full k-point grid
   LINTERFAST=   F  fast interpolation
   KINTER  =     0    interpolate to denser k-point grid
   CSHIFT  =0.1000    complex shift for real part using Kramers Kronig
   OMEGAMAX=  -1.0    maximum frequency
   DEG_THRESHOLD= 0.2000000E-02 threshold for treating states as degnerate
   RTIME   =   -0.100 relaxation time in fs
  (WPLASMAI=    0.000 imaginary part of plasma frequency in eV, 0.658/RTIME)
   DFIELD  = 0.0000000 0.0000000 0.0000000 field for delta impulse in time
 
 Orbital magnetization related:
   ORBITALMAG=     F  switch on orbital magnetization
   LCHIMAG   =     F  perturbation theory with respect to B field
   DQ        =  0.001000  dq finite difference perturbation B field
   LLRAUG    =     F  two centre corrections for induced B field



--------------------------------------------------------------------------------------------------------


 Static calculation
 charge density and potential will be updated during run
 non-spin polarized calculation
 Variant of blocked Davidson
 Davidson routine will perform the subspace rotation
 perform sub-space diagonalisation
    after iterative eigenvector-optimisation
 modified Broyden-mixing scheme, WC =      100.0
 initial mixing is a Kerker type mixing with AMIX =  0.4000 and BMIX =      1.0000
 Hartree-type preconditioning will be used
 using additional bands           35
 reciprocal scheme for non local part
 use partial core corrections
 calculate Harris-corrections to forces 
   (improved forces if not selfconsistent)
 use gradient corrections 
 use of overlap-Matrix (Vanderbilt PP)
 Fermi weights with tetrahedron method with Bloechl corrections


--------------------------------------------------------------------------------------------------------


  energy-cutoff  :      250.00
  volume of cell :     2040.04
      direct lattice vectors                 reciprocal lattice vectors
    12.682372959  0.001195540  0.000923447     0.078849598 -0.000006817 -0.000007428
     0.001096479 12.681948039  0.001003781    -0.000007433  0.078852240 -0.000005700
     0.001194993  0.000916952 12.683861315    -0.000005740 -0.000006240  0.078840346

  length of vectors
    12.682373049 12.681948127 12.683861405     0.078849599  0.078852241  0.078840346


 
 old parameters found on file WAVECAR:
  energy-cutoff  :      250.00
  volume of cell :     2040.04
      direct lattice vectors                 reciprocal lattice vectors
    12.682372959  0.001195540  0.000923447     0.078849598 -0.000006817 -0.000007428
     0.001096479 12.681948039  0.001003781    -0.000007433  0.078852240 -0.000005700
     0.001194993  0.000916952 12.683861315    -0.000005740 -0.000006240  0.078840346

  length of vectors

 
 k-points in units of 2pi/SCALE and weight: agbii                                   
   0.00000000  0.00000000  0.00000000       0.016
   0.01971240 -0.00000170 -0.00000186       0.031
   0.00000186 -0.01971306  0.00000142       0.031
   0.03942480 -0.00000341 -0.00000371       0.016
  -0.00000372  0.03942612 -0.00000285       0.016
   0.01971054  0.01971136 -0.00000328       0.031
   0.03942294  0.01970965 -0.00000514       0.031
  -0.01971612  0.03942782 -0.00000099       0.031
  -0.01971426  0.01971476  0.00000043       0.031
   0.03942108  0.03942271 -0.00000656       0.016
  -0.00000144 -0.00000156  0.01971009       0.031
   0.01971096 -0.00000326  0.01970823       0.031
   0.00000329 -0.01971150 -0.01970866       0.031
   0.03942336 -0.00000497  0.01970637       0.031
  -0.00000228  0.03942768 -0.01971294       0.031
  -0.01971383  0.00000014  0.01971194       0.031
  -0.00000042  0.01971462 -0.01971151       0.031
   0.01970911  0.01970980  0.01970680       0.031
   0.03942151  0.01970809  0.01970495       0.031
  -0.01971468  0.03942938 -0.01971108       0.031
  -0.01971569  0.01971320  0.01971052       0.031
  -0.01971282  0.01971632 -0.01970965       0.031
   0.03941965  0.03942115  0.01970352       0.031
  -0.01971755  0.03942626  0.01970909       0.031
   0.03942438  0.01971121 -0.01971523       0.031
  -0.01971198 -0.01971292  0.01971337       0.031
  -0.00000287 -0.00000312  0.03942017       0.016
   0.01970953 -0.00000482  0.03941832       0.031
  -0.00000101 -0.01971618  0.03942160       0.031
   0.03942193 -0.00000653  0.03941646       0.016
  -0.00000659  0.03942300  0.03941732       0.016
   0.01970767  0.01970824  0.03941689       0.031
   0.03942007  0.01970653  0.03941503       0.031
  -0.01971899  0.03942470  0.03941918       0.031
  -0.01971713  0.01971164  0.03942061       0.031
   0.03941821  0.03941959  0.03941361       0.016
 
 k-points in reciprocal lattice and weights: agbii                                   
   0.00000000  0.00000000  0.00000000       0.016
   0.25000000 -0.00000000  0.00000000       0.031
  -0.00000000 -0.25000000 -0.00000000       0.031
   0.50000000 -0.00000000 -0.00000000       0.016
   0.00000000  0.50000000  0.00000000       0.016
   0.25000000  0.25000000 -0.00000000       0.031
   0.50000000  0.25000000  0.00000000       0.031
  -0.25000000  0.50000000 -0.00000000       0.031
  -0.25000000  0.25000000  0.00000000       0.031
   0.50000000  0.50000000 -0.00000000       0.016
   0.00000000 -0.00000000  0.25000000       0.031
   0.25000000 -0.00000000  0.25000000       0.031
  -0.00000000 -0.25000000 -0.25000000       0.031
   0.50000000 -0.00000000  0.25000000       0.031
   0.00000000  0.50000000 -0.25000000       0.031
  -0.25000000  0.00000000  0.25000000       0.031
   0.00000000  0.25000000 -0.25000000       0.031
   0.25000000  0.25000000  0.25000000       0.031
   0.50000000  0.25000000  0.25000000       0.031
  -0.25000000  0.50000000 -0.25000000       0.031
  -0.25000000  0.25000000  0.25000000       0.031
  -0.25000000  0.25000000 -0.25000000       0.031
   0.50000000  0.50000000  0.25000000       0.031
  -0.25000000  0.50000000  0.25000000       0.031
   0.50000000  0.25000000 -0.25000000       0.031
  -0.25000000 -0.25000000  0.25000000       0.031
   0.00000000 -0.00000000  0.50000000       0.016
   0.25000000 -0.00000000  0.50000000       0.031
   0.00000000 -0.25000000  0.50000000       0.031
   0.50000000 -0.00000000  0.50000000       0.016
   0.00000000  0.50000000  0.50000000       0.016
   0.25000000  0.25000000  0.50000000       0.031
   0.50000000  0.25000000  0.50000000       0.031
  -0.25000000  0.50000000  0.50000000       0.031
  -0.25000000  0.25000000  0.50000000       0.031
   0.50000000  0.50000000  0.50000000       0.016
 
 position of ions in fractional coordinates (direct lattice) 
   0.23540255  0.26526840  0.00039123
   0.73528022  0.76594216  0.00052370
   0.01620076  0.26537222  0.25081640
   0.01569438  0.48371701  0.50091225
   0.51661607  0.98365508  0.49964607
   0.73465149  0.98427766  0.75060985
   0.51578751  0.76454814  0.25061969
   0.23424703  0.48380459  0.75024663
   0.99704658  0.00295739  0.00042767
   0.49720926  0.50279386  0.00015767
   0.99721136  0.74753577  0.75039612
   0.25233610  0.00259873  0.25020847
   0.75242770  0.50259850  0.25032992
   0.49707651  0.24730687  0.75003083
   0.75261875  0.24710745  0.50035045
   0.25251828  0.74740374  0.50031863
   0.24963393  0.99898188  0.00443799
   0.24906687  0.99996042  0.49588251
   0.25661886  0.49872048  0.99045115
   0.24857690  0.50677756  0.51015505
   0.75647393  0.99918700  0.99086223
   0.74912807  0.00653014  0.50982415
   0.74980482  0.49881117  0.00467258
   0.74917079  0.49969938  0.49617513
   0.00176605  0.24336266  0.01020801
   0.99326981  0.25091144  0.49082572
   0.00068988  0.75008984  0.99604193
   0.99993649  0.75056094  0.50456237
   0.50083012  0.24993132  0.99574492
   0.50010511  0.25065618  0.50426980
   0.50183009  0.74318057  0.00993445
   0.49312101  0.75092676  0.49066037
   0.99964675  0.00014610  0.24611905
   0.99961785  0.00017486  0.75454583
   0.99300216  0.49829004  0.26125202
   0.00126978  0.50692625  0.74002119
   0.49290097  0.99794740  0.26065011
   0.50155338  0.00680468  0.73913216
   0.49979176  0.49959171  0.24596168
   0.49989463  0.50002307  0.75438921
   0.24884171  0.24337018  0.23948923
   0.25636150  0.25118614  0.76101212
   0.24998435  0.75024669  0.25446251
   0.24959436  0.75024574  0.74603724
   0.74976601  0.25025347  0.25460258
   0.74943230  0.24964190  0.74616159
   0.74859391  0.74333217  0.23953107
   0.75654896  0.75149418  0.76120520
 
 position of ions in cartesian coordinates  (Angst):
   2.98575427  3.36440185  0.00544596
   9.32593843  9.71451822  0.00809036
   0.20605482  3.36568610  3.18160182
   0.20017090  6.13495212  6.35400158
   6.55359336 12.47573845  6.33890591
   9.31910043 12.48412470  9.52229771
   6.54254738  9.69680623  3.18006908
   2.97223528  6.13655268  9.51672617
  12.64492038  0.03869788  0.00634822
   6.30634479  6.37700020  0.00296365
  12.64872281  9.48209003  9.51959161
   3.20052243  0.03348806  3.17384516
   9.54341892  6.37505716  3.17634934
   6.30527715  3.13761488  9.51399425
   9.54586049  3.13516245  6.34731875
   3.20394843  9.47929612  6.34695559
   3.16705129 12.66933886  0.05752412
   3.16044796 12.68219853  6.29093874
   3.25626657  6.32596224 12.56348254
   3.15371026  6.42769164  6.47147411
   9.59616416 12.67345059 12.56966057
   9.50133803  0.08417794  6.46723709
   9.50985693  6.32679808  0.06045945
   9.50240421  6.33851214  6.29460992
   0.02267679  3.08632405  0.12972296
  12.59787988  3.18368340  6.22673449
   0.01076197  9.51351449 12.63441124
  12.68299339  9.52023294  6.40147587
   6.35317838  3.17112788 12.63060383
   6.34339700  3.17986891  6.39680158
   6.36522308  9.42558641  0.12721658
   6.25535426  9.52425367  6.22467722
  12.67818714  0.00327362  3.12266313
  12.67842825  0.00410448  9.57147791
  12.59448232  6.32071513  3.31510152
   0.01754393  6.42949249  9.38683612
   6.25255965 12.65674534  3.30750677
   6.36177779  0.08757398  9.37551979
   6.33938717  6.33661911  3.12070687
   6.34129984  6.34255593  9.56953163
   3.15645636  3.08692507  3.03812230
   3.25245704  3.18653391  9.65306107
   3.17152146  9.51512174  3.22855106
   3.16716293  9.51555991  9.46361642
   9.50939084  3.17483131  3.23028739
   9.50574535  3.16752584  9.46515278
   9.49504848  9.42801462  3.03961624
   9.59656974  9.53201258  9.65647420
 


--------------------------------------------------------------------------------------------------------


 k-point   1 :   0.0000 0.0000 0.0000  plane waves:   18325
 k-point   2 :   0.2500-0.0000 0.0000  plane waves:   18309
 k-point   3 :  -0.0000-0.2500-0.0000  plane waves:   18309
 k-point   4 :   0.5000-0.0000-0.0000  plane waves:   18368
 k-point   5 :   0.0000 0.5000 0.0000  plane waves:   18368
 k-point   6 :   0.2500 0.2500-0.0000  plane waves:   18355
 k-point   7 :   0.5000 0.2500 0.0000  plane waves:   18317
 k-point   8 :  -0.2500 0.5000-0.0000  plane waves:   18319
 k-point   9 :  -0.2500 0.2500 0.0000  plane waves:   18355
 k-point  10 :   0.5000 0.5000-0.0000  plane waves:   18256
 k-point  11 :   0.0000-0.0000 0.2500  plane waves:   18309
 k-point  12 :   0.2500-0.0000 0.2500  plane waves:   18355
 k-point  13 :  -0.0000-0.2500-0.2500  plane waves:   18355
 k-point  14 :   0.5000-0.0000 0.2500  plane waves:   18317
 k-point  15 :   0.0000 0.5000-0.2500  plane waves:   18317
 k-point  16 :  -0.2500 0.0000 0.2500  plane waves:   18355
 k-point  17 :   0.0000 0.2500-0.2500  plane waves:   18355
 k-point  18 :   0.2500 0.2500 0.2500  plane waves:   18331
 k-point  19 :   0.5000 0.2500 0.2500  plane waves:   18303
 k-point  20 :  -0.2500 0.5000-0.2500  plane waves:   18305
 k-point  21 :  -0.2500 0.2500 0.2500  plane waves:   18331
 k-point  22 :  -0.2500 0.2500-0.2500  plane waves:   18331
 k-point  23 :   0.5000 0.5000 0.2500  plane waves:   18276
 k-point  24 :  -0.2500 0.5000 0.2500  plane waves:   18299
 k-point  25 :   0.5000 0.2500-0.2500  plane waves:   18298
 k-point  26 :  -0.2500-0.2500 0.2500  plane waves:   18331
 k-point  27 :   0.0000-0.0000 0.5000  plane waves:   18368
 k-point  28 :   0.2500-0.0000 0.5000  plane waves:   18317
 k-point  29 :   0.0000-0.2500 0.5000  plane waves:   18317
 k-point  30 :   0.5000-0.0000 0.5000  plane waves:   18256
 k-point  31 :   0.0000 0.5000 0.5000  plane waves:   18256
 k-point  32 :   0.2500 0.2500 0.5000  plane waves:   18300
 k-point  33 :   0.5000 0.2500 0.5000  plane waves:   18276
 k-point  34 :  -0.2500 0.5000 0.5000  plane waves:   18276
 k-point  35 :  -0.2500 0.2500 0.5000  plane waves:   18296
 k-point  36 :   0.5000 0.5000 0.5000  plane waves:   18336

 maximum and minimum number of plane-waves per node :     18368    18256

 maximum number of plane-waves:     18368
 maximum index in each direction: 
   IXMAX=   16   IYMAX=   16   IZMAX=   16
   IXMIN=  -16   IYMIN=  -16   IZMIN=  -16


 serial   3D FFT for wavefunctions
 parallel 3D FFT for charge:
    minimum data exchange during FFTs selected (reduces bandwidth)


 total amount of memory used by VASP MPI-rank0  2748304. kBytes
=======================================================================

   base      :      30000. kBytes
   nonl-proj :     299765. kBytes
   fftplans  :      34720. kBytes
   grid      :      70000. kBytes
   one-center:        746. kBytes
   wavefun   :    2313073. kBytes
 
     INWAV:  cpu time    4.5463: real time    5.2517
 Broyden mixing: mesh for mixing (old mesh)
   NGX = 33   NGY = 33   NGZ = 33
  (NGX  =100   NGY  =100   NGZ  =100)
  gives a total of  35937 points

 initial charge density was supplied:
 number of electron     352.0000124 magnetization 
 keeping initial charge density in first step


--------------------------------------------------------------------------------------------------------


 Maximum index for augmentation-charges         5669 (set IRDMAX)


--------------------------------------------------------------------------------------------------------


 First call to EWALD:  gamma=   0.140
 Maximum number of real-space cells 3x 3x 3
 Maximum number of reciprocal cells 3x 3x 3

    FEWALD:  cpu time    0.0033: real time    0.0033


--------------------------------------- Iteration      1(   1)  ---------------------------------------


    POTLOK:  cpu time    0.5552: real time    0.5944
    SETDIJ:  cpu time    0.0277: real time    0.0277
     EDDAV:  cpu time   57.0330: real time   57.0329
 BZINTS: Fermi energy:    1.981580;  352.000000 electrons
         Band energy:-0.731929E+03;  BLOECHL correction:    0.000000
       DOS:  cpu time    0.0566: real time    0.0566
    CHARGE:  cpu time    1.2287: real time    1.2288
    MIXING:  cpu time    0.0290: real time    0.0290
    --------------------------------------------
      LOOP:  cpu time   58.9303: real time   58.9696

 eigenvalue-minimisations  : 10261
 total energy-change (2. order) :-0.1201171E+03  (-0.2462173E-06)
 number of electron     352.0000124 magnetization 
 augmentation part      -23.1146054 magnetization 

 Broyden mixing:
  rms(total) = 0.62726E-03    rms(broyden)= 0.62723E-03
  rms(prec ) = 0.70732E-03
  weight for this iteration     100.00

 Free energy of the ion-electron system (eV)
  ---------------------------------------------------
  alpha Z        PSCENC =       228.27940363
  Ewald energy   TEWEN  =    -13989.84239308
  -Hartree energ DENC   =     -5988.88782254
  -exchange      EXHF   =         0.00000000
  -V(xc)+E(xc)   XCENC  =     -1392.19370320
  PAW double counting   =     22649.85489758   -20507.12247554
  entropy T*S    EENTRO =         0.00000000
  eigenvalues    EBANDS =      -731.92872168
  atomic energy  EATOM  =     19611.72375700
  Solvation  Ediel_sol  =         0.00000000
  ---------------------------------------------------
  free energy    TOTEN  =      -120.11705783 eV

  energy without entropy =     -120.11705783  energy(sigma->0) =     -120.11705783


--------------------------------------------------------------------------------------------------------




--------------------------------------- Iteration      1(   2)  ---------------------------------------


    POTLOK:  cpu time    0.5626: real time    0.5631
    SETDIJ:  cpu time    0.0545: real time    0.0544
     EDDAV:  cpu time   49.5720: real time   49.5718
 BZINTS: Fermi energy:    1.981515;  352.000000 electrons
         Band energy:-0.731925E+03;  BLOECHL correction:    0.000000
       DOS:  cpu time    0.0562: real time    0.0562
    --------------------------------------------
      LOOP:  cpu time   50.2452: real time   50.2452

 eigenvalue-minimisations  :  8202
 total energy-change (2. order) : 0.2871457E-06  (-0.9745334E-07)
 number of electron     352.0000124 magnetization 
 augmentation part      -23.1146054 magnetization 

 Free energy of the ion-electron system (eV)
  ---------------------------------------------------
  alpha Z        PSCENC =       228.27940363
  Ewald energy   TEWEN  =    -13989.84239308
  -Hartree energ DENC   =     -5988.89164409
  -exchange      EXHF   =         0.00000000
  -V(xc)+E(xc)   XCENC  =     -1392.19333887
  PAW double counting   =     22649.42884058   -20506.69705695
  entropy T*S    EENTRO =         0.00000000
  eigenvalues    EBANDS =      -731.92462576
  atomic energy  EATOM  =     19611.72375700
  Solvation  Ediel_sol  =         0.00000000
  ---------------------------------------------------
  free energy    TOTEN  =      -120.11705755 eV

  energy without entropy =     -120.11705755  energy(sigma->0) =     -120.11705755


--------------------------------------------------------------------------------------------------------




 average (electrostatic) potential at core
  the test charge radii are     1.1249  1.4024  1.1875
  (the norm of the test charge is              1.0000)
       1 -75.0148       2 -75.0172       3 -75.0186       4 -75.0191       5 -75.0219
       6 -75.0168       7 -75.0176       8 -75.0188       9 -65.3998      10 -65.3986
      11 -65.4013      12 -65.4017      13 -65.4010      14 -65.4009      15 -65.4006
      16 -65.4009      17 -93.1500      18 -93.1477      19 -93.0718      20 -93.0775
      21 -93.0749      22 -93.0776      23 -93.1474      24 -93.1475      25 -93.0710
      26 -93.0796      27 -93.1523      28 -93.1472      29 -93.1499      30 -93.1488
      31 -93.0725      32 -93.0808      33 -93.1590      34 -93.1564      35 -93.0800
      36 -93.0842      37 -93.0820      38 -93.0812      39 -93.1574      40 -93.1533
      41 -93.0852      42 -93.0844      43 -93.1577      44 -93.1564      45 -93.1560
      46 -93.1597      47 -93.0857      48 -93.0840
 
 
 
 E-fermi :   1.9815     XC(G=0):  -7.8530     alpha+bet : -7.8460


 k-point     1 :       0.0000    0.0000    0.0000
  band No.  band energies     occupation 
      1     -10.7436      2.00000
      2     -10.6408      2.00000
      3     -10.4157      2.00000
      4     -10.4142      2.00000
      5     -10.4026      2.00000
      6     -10.3996      2.00000
      7     -10.0176      2.00000
      8     -10.0040      2.00000
      9      -9.8138      2.00000
     10      -9.7241      2.00000
     11      -9.7199      2.00000
     12      -9.7137      2.00000
     13      -9.7021      2.00000
     14      -9.6984      2.00000
     15      -9.6963      2.00000
     16      -9.6789      2.00000
     17      -9.6692      2.00000
     18      -9.6552      2.00000
     19      -9.6359      2.00000
     20      -9.6235      2.00000
     21      -9.6205      2.00000
     22      -9.6086      2.00000
     23      -9.6002      2.00000
     24      -9.5526      2.00000
     25      -9.5515      2.00000
     26      -9.5443      2.00000
     27      -9.5248      2.00000
     28      -9.5226      2.00000
     29      -9.5217      2.00000
     30      -9.5195      2.00000
     31      -9.5112      2.00000
     32      -9.5104      2.00000
     33      -8.1295      2.00000
     34      -8.1172      2.00000
     35      -7.7650      2.00000
     36      -7.7641      2.00000
     37      -7.7625      2.00000
     38      -7.7615      2.00000
     39      -7.5479      2.00000
     40      -7.4331      2.00000
     41      -1.7327      2.00000
     42      -1.6646      2.00000
     43      -1.6180      2.00000
     44      -1.6089      2.00000
     45      -1.5050      2.00000
     46      -1.4640      2.00000
     47      -1.4139      2.00000
     48      -1.4086      2.00000
     49      -1.3650      2.00000
     50      -1.3641      2.00000
     51      -1.2737      2.00000
     52      -1.2709      2.00000
     53      -1.2032      2.00000
     54      -1.1975      2.00000
     55      -1.1937      2.00000
     56      -1.1842      2.00000
     57      -1.1663      2.00000
     58      -1.1630      2.00000
     59      -1.1617      2.00000
     60      -1.1439      2.00000
     61      -1.1255      2.00000
     62      -1.0229      2.00000
     63      -0.9902      2.00000
     64      -0.9823      2.00000
     65      -0.9689      2.00000
     66      -0.9677      2.00000
     67      -0.9377      2.00000
     68      -0.9296      2.00000
     69      -0.9212      2.00000
     70      -0.9142      2.00000
     71      -0.8411      2.00000
     72      -0.8292      2.00000
     73      -0.8136      2.00000
     74      -0.8075      2.00000
     75      -0.7936      2.00000
     76      -0.7916      2.00000
     77      -0.7858      2.00000
     78      -0.7291      2.00000
     79      -0.6915      2.00000
     80      -0.6754      2.00000
     81      -0.6737      2.00000
     82      -0.6695      2.00000
     83      -0.5654      2.00000
     84      -0.5608      2.00000
     85      -0.5587      2.00000
     86      -0.5002      2.00000
     87      -0.4455      2.00000
     88      -0.4426      2.00000
     89      -0.4419      2.00000
     90      -0.4366      2.00000
     91      -0.4062      2.00000
     92      -0.3852      2.00000
     93      -0.3381      2.00000
     94      -0.3291      2.00000
     95      -0.2993      2.00000
     96      -0.2982      2.00000
     97      -0.2933      2.00000
     98      -0.2920      2.00000
     99      -0.2819      2.00000
    100      -0.2573      2.00000
    101      -0.1890      2.00000
    102      -0.1884      2.00000
    103      -0.1783      2.00000
    104      -0.1581      2.00000
    105      -0.1546      2.00000
    106      -0.1529      2.00000
    107      -0.1151      2.00000
    108      -0.1050      2.00000
    109      -0.0710      2.00000
    110      -0.0439      2.00000
    111      -0.0424      2.00000
    112      -0.0279      2.00000
    113       0.0691      2.00000
    114       0.0960      2.00000
    115       0.1721      2.00000
    116       0.1994      2.00000
    117       0.2749      2.00000
    118       0.2790      2.00000
    119       0.3652      2.00000
    120       0.3747      2.00000
    121       0.3968      2.00000
    122       0.4014      2.00000
    123       0.4309      2.00000
    124       0.4650      2.00000
    125       0.4913      2.00000
    126       0.4934      2.00000
    127       0.4999      2.00000
    128       0.5702      2.00000
    129       0.5766      2.00000
    130       0.6011      2.00000
    131       0.6340      2.00000
    132       0.7026      2.00000
    133       0.7035      2.00000
    134       0.7230      2.00000
    135       0.7306      2.00000
    136       0.7542      2.00000
    137       0.7759      2.00000
    138       0.7982      2.00000
    139       0.8882      2.00000
    140       0.8967      2.00000
    141       0.8990      2.00000
    142       0.9406      2.00000
    143       0.9416      2.00000
    144       0.9434      2.00000
    145       0.9495      2.00000
    146       0.9497      2.00000
    147       0.9734      2.00000
    148       0.9797      2.00000
    149       0.9953      2.00000
    150       0.9962      2.00000
    151       1.1209      2.00000
    152       1.1351      2.00000
    153       1.1600      2.00000
    154       1.1999      2.00000
    155       1.2003      2.00000
    156       1.2624      2.00000
    157       1.2678      2.00000
    158       1.2842      2.00000
    159       1.3260      2.00000
    160       1.3806      2.00000
    161       1.4186      2.00000
    162       1.5738      2.00000
    163       1.5783      2.00000
    164       1.6324      2.00000
    165       1.7223      2.00000
    166       1.7283      2.00000
    167       1.7921      2.00000
    168       1.8013      2.00000
    169       1.8298      2.00000
    170       1.8503      2.00000
    171       1.9001      2.00000
    172       1.9099      2.00000
    173       1.9378      2.00000
    174       1.9413      2.00000
    175       1.9694      2.00000
    176       1.9802      2.00000
    177       4.0144      0.00000
    178       4.1284      0.00000
    179       4.1625      0.00000
    180       4.1658      0.00000
    181       4.3480      0.00000
    182       4.3989      0.00000
    183       4.4011      0.00000
    184       4.4513      0.00000
    185       4.5293      0.00000
    186       4.5997      0.00000
    187       4.6056      0.00000
    188       4.6102      0.00000
    189       4.6285      0.00000
    190       4.6391      0.00000
    191       4.6807      0.00000
    192       4.7281      0.00000
    193       4.7299      0.00000
    194       4.8007      0.00000
    195       4.8080      0.00000
    196       4.8739      0.00000
    197       4.8766      0.00000
    198       4.8930      0.00000
    199       4.9970      0.00000
    200       5.1018      0.00000
    201       5.2651      0.00000
    202       5.5149      0.00000
    203       5.5725      0.00000
    204       5.5841      0.00000
    205       5.9353      0.00000
    206       5.9423      0.00000
    207       5.9947      0.00000
    208       6.0192      0.00000
    209       7.2607      0.00000
    210       7.2939      0.00000
    211       7.3152      0.00000

 k-point     2 :       0.2500   -0.0000    0.0000
  band No.  band energies     occupation 
      1     -10.7304      2.00000
      2     -10.6581      2.00000
      3     -10.4127      2.00000
      4     -10.4110      2.00000
      5     -10.4034      2.00000
      6     -10.4007      2.00000
      7     -10.0200      2.00000
      8     -10.0108      2.00000
      9      -9.7957      2.00000
     10      -9.7292      2.00000
     11      -9.7278      2.00000
     12      -9.7213      2.00000
     13      -9.7128      2.00000
     14      -9.7053      2.00000
     15      -9.6956      2.00000
     16      -9.6811      2.00000
     17      -9.6694      2.00000
     18      -9.6608      2.00000
     19      -9.6249      2.00000
     20      -9.6070      2.00000
     21      -9.5994      2.00000
     22      -9.5933      2.00000
     23      -9.5836      2.00000
     24      -9.5630      2.00000
     25      -9.5499      2.00000
     26      -9.5422      2.00000
     27      -9.5349      2.00000
     28      -9.5295      2.00000
     29      -9.5261      2.00000
     30      -9.5251      2.00000
     31      -9.5171      2.00000
     32      -9.5135      2.00000
     33      -8.1300      2.00000
     34      -8.1213      2.00000
     35      -7.7672      2.00000
     36      -7.7659      2.00000
     37      -7.7614      2.00000
     38      -7.7605      2.00000
     39      -7.5281      2.00000
     40      -7.4478      2.00000
     41      -1.7168      2.00000
     42      -1.6479      2.00000
     43      -1.6348      2.00000
     44      -1.5989      2.00000
     45      -1.5320      2.00000
     46      -1.5190      2.00000
     47      -1.4271      2.00000
     48      -1.3952      2.00000
     49      -1.3774      2.00000
     50      -1.3600      2.00000
     51      -1.2893      2.00000
     52      -1.2618      2.00000
     53      -1.2585      2.00000
     54      -1.2089      2.00000
     55      -1.1936      2.00000
     56      -1.1811      2.00000
     57      -1.1773      2.00000
     58      -1.1544      2.00000
     59      -1.1091      2.00000
     60      -1.0983      2.00000
     61      -1.0681      2.00000
     62      -1.0565      2.00000
     63      -0.9965      2.00000
     64      -0.9918      2.00000
     65      -0.9762      2.00000
     66      -0.9681      2.00000
     67      -0.9191      2.00000
     68      -0.9155      2.00000
     69      -0.9080      2.00000
     70      -0.8465      2.00000
     71      -0.8415      2.00000
     72      -0.8393      2.00000
     73      -0.8065      2.00000
     74      -0.7851      2.00000
     75      -0.7790      2.00000
     76      -0.7709      2.00000
     77      -0.7537      2.00000
     78      -0.7361      2.00000
     79      -0.7278      2.00000
     80      -0.7010      2.00000
     81      -0.6992      2.00000
     82      -0.6788      2.00000
     83      -0.6364      2.00000
     84      -0.6106      2.00000
     85      -0.5625      2.00000
     86      -0.4669      2.00000
     87      -0.4642      2.00000
     88      -0.4330      2.00000
     89      -0.4104      2.00000
     90      -0.4066      2.00000
     91      -0.3881      2.00000
     92      -0.3661      2.00000
     93      -0.3536      2.00000
     94      -0.3339      2.00000
     95      -0.3205      2.00000
     96      -0.2946      2.00000
     97      -0.2900      2.00000
     98      -0.2754      2.00000
     99      -0.2644      2.00000
    100      -0.2411      2.00000
    101      -0.2155      2.00000
    102      -0.1924      2.00000
    103      -0.1912      2.00000
    104      -0.1738      2.00000
    105      -0.1712      2.00000
    106      -0.1632      2.00000
    107      -0.1433      2.00000
    108      -0.1371      2.00000
    109      -0.1024      2.00000
    110      -0.0894      2.00000
    111      -0.0533      2.00000
    112       0.0303      2.00000
    113       0.0424      2.00000
    114       0.1707      2.00000
    115       0.1811      2.00000
    116       0.2581      2.00000
    117       0.2859      2.00000
    118       0.3034      2.00000
    119       0.3189      2.00000
    120       0.3745      2.00000
    121       0.3925      2.00000
    122       0.4272      2.00000
    123       0.4306      2.00000
    124       0.4405      2.00000
    125       0.4809      2.00000
    126       0.5004      2.00000
    127       0.5199      2.00000
    128       0.5533      2.00000
    129       0.6037      2.00000
    130       0.6641      2.00000
    131       0.6686      2.00000
    132       0.6932      2.00000
    133       0.7035      2.00000
    134       0.7322      2.00000
    135       0.7419      2.00000
    136       0.7593      2.00000
    137       0.7691      2.00000
    138       0.7798      2.00000
    139       0.8799      2.00000
    140       0.8841      2.00000
    141       0.8867      2.00000
    142       0.9000      2.00000
    143       0.9086      2.00000
    144       0.9178      2.00000
    145       0.9273      2.00000
    146       0.9340      2.00000
    147       0.9696      2.00000
    148       0.9933      2.00000
    149       1.0243      2.00000
    150       1.0532      2.00000
    151       1.1108      2.00000
    152       1.1499      2.00000
    153       1.1576      2.00000
    154       1.1689      2.00000
    155       1.2361      2.00000
    156       1.2576      2.00000
    157       1.2778      2.00000
    158       1.3033      2.00000
    159       1.3187      2.00000
    160       1.3451      2.00000
    161       1.5137      2.00000
    162       1.5891      2.00000
    163       1.6196      2.00000
    164       1.6565      2.00000
    165       1.7246      2.00000
    166       1.7322      2.00000
    167       1.7883      2.00000
    168       1.7929      2.00000
    169       1.8049      2.00000
    170       1.8071      2.00000
    171       1.8763      2.00000
    172       1.8962      2.00000
    173       1.9058      2.00000
    174       1.9102      2.00000
    175       1.9221      2.00000
    176       1.9435      2.00000
    177       4.0506      0.00000
    178       4.1301      0.00000
    179       4.2063      0.00000
    180       4.2255      0.00000
    181       4.3643      0.00000
    182       4.3648      0.00000
    183       4.3974      0.00000
    184       4.4321      0.00000
    185       4.5128      0.00000
    186       4.5741      0.00000
    187       4.6001      0.00000
    188       4.6472      0.00000
    189       4.6560      0.00000
    190       4.6657      0.00000
    191       4.6908      0.00000
    192       4.7045      0.00000
    193       4.7464      0.00000
    194       4.7942      0.00000
    195       4.8036      0.00000
    196       4.8468      0.00000
    197       4.8561      0.00000
    198       4.9114      0.00000
    199       4.9300      0.00000
    200       5.0606      0.00000
    201       5.3738      0.00000
    202       5.5650      0.00000
    203       5.6314      0.00000
    204       5.6485      0.00000
    205       5.8228      0.00000
    206       5.8610      0.00000
    207       5.9408      0.00000
    208       5.9577      0.00000
    209       7.3100      0.00000
    210       7.3936      0.00000
    211       7.4318      0.00000

 k-point     3 :      -0.0000   -0.2500   -0.0000
  band No.  band energies     occupation 
      1     -10.7304      2.00000
      2     -10.6581      2.00000
      3     -10.4128      2.00000
      4     -10.4109      2.00000
      5     -10.4035      2.00000
      6     -10.4005      2.00000
      7     -10.0199      2.00000
      8     -10.0108      2.00000
      9      -9.7957      2.00000
     10      -9.7289      2.00000
     11      -9.7276      2.00000
     12      -9.7215      2.00000
     13      -9.7127      2.00000
     14      -9.7057      2.00000
     15      -9.6957      2.00000
     16      -9.6811      2.00000
     17      -9.6696      2.00000
     18      -9.6609      2.00000
     19      -9.6250      2.00000
     20      -9.6067      2.00000
     21      -9.5995      2.00000
     22      -9.5931      2.00000
     23      -9.5837      2.00000
     24      -9.5629      2.00000
     25      -9.5497      2.00000
     26      -9.5426      2.00000
     27      -9.5349      2.00000
     28      -9.5294      2.00000
     29      -9.5261      2.00000
     30      -9.5251      2.00000
     31      -9.5172      2.00000
     32      -9.5135      2.00000
     33      -8.1300      2.00000
     34      -8.1213      2.00000
     35      -7.7668      2.00000
     36      -7.7656      2.00000
     37      -7.7617      2.00000
     38      -7.7608      2.00000
     39      -7.5281      2.00000
     40      -7.4478      2.00000
     41      -1.7168      2.00000
     42      -1.6479      2.00000
     43      -1.6348      2.00000
     44      -1.5990      2.00000
     45      -1.5317      2.00000
     46      -1.5194      2.00000
     47      -1.4265      2.00000
     48      -1.3945      2.00000
     49      -1.3780      2.00000
     50      -1.3609      2.00000
     51      -1.2899      2.00000
     52      -1.2620      2.00000
     53      -1.2577      2.00000
     54      -1.2083      2.00000
     55      -1.1936      2.00000
     56      -1.1809      2.00000
     57      -1.1773      2.00000
     58      -1.1547      2.00000
     59      -1.1092      2.00000
     60      -1.0976      2.00000
     61      -1.0680      2.00000
     62      -1.0572      2.00000
     63      -0.9961      2.00000
     64      -0.9918      2.00000
     65      -0.9757      2.00000
     66      -0.9678      2.00000
     67      -0.9191      2.00000
     68      -0.9154      2.00000
     69      -0.9092      2.00000
     70      -0.8469      2.00000
     71      -0.8410      2.00000
     72      -0.8389      2.00000
     73      -0.8064      2.00000
     74      -0.7853      2.00000
     75      -0.7795      2.00000
     76      -0.7709      2.00000
     77      -0.7538      2.00000
     78      -0.7361      2.00000
     79      -0.7279      2.00000
     80      -0.7015      2.00000
     81      -0.6995      2.00000
     82      -0.6783      2.00000
     83      -0.6357      2.00000
     84      -0.6119      2.00000
     85      -0.5620      2.00000
     86      -0.4666      2.00000
     87      -0.4636      2.00000
     88      -0.4330      2.00000
     89      -0.4107      2.00000
     90      -0.4066      2.00000
     91      -0.3881      2.00000
     92      -0.3657      2.00000
     93      -0.3547      2.00000
     94      -0.3341      2.00000
     95      -0.3201      2.00000
     96      -0.2953      2.00000
     97      -0.2891      2.00000
     98      -0.2753      2.00000
     99      -0.2646      2.00000
    100      -0.2410      2.00000
    101      -0.2155      2.00000
    102      -0.1919      2.00000
    103      -0.1913      2.00000
    104      -0.1736      2.00000
    105      -0.1712      2.00000
    106      -0.1625      2.00000
    107      -0.1435      2.00000
    108      -0.1373      2.00000
    109      -0.1024      2.00000
    110      -0.0901      2.00000
    111      -0.0537      2.00000
    112       0.0305      2.00000
    113       0.0425      2.00000
    114       0.1706      2.00000
    115       0.1815      2.00000
    116       0.2588      2.00000
    117       0.2850      2.00000
    118       0.3035      2.00000
    119       0.3200      2.00000
    120       0.3734      2.00000
    121       0.3916      2.00000
    122       0.4262      2.00000
    123       0.4314      2.00000
    124       0.4419      2.00000
    125       0.4805      2.00000
    126       0.5006      2.00000
    127       0.5198      2.00000
    128       0.5531      2.00000
    129       0.6042      2.00000
    130       0.6637      2.00000
    131       0.6694      2.00000
    132       0.6932      2.00000
    133       0.7039      2.00000
    134       0.7315      2.00000
    135       0.7423      2.00000
    136       0.7598      2.00000
    137       0.7690      2.00000
    138       0.7793      2.00000
    139       0.8799      2.00000
    140       0.8838      2.00000
    141       0.8854      2.00000
    142       0.9013      2.00000
    143       0.9085      2.00000
    144       0.9174      2.00000
    145       0.9273      2.00000
    146       0.9338      2.00000
    147       0.9700      2.00000
    148       0.9941      2.00000
    149       1.0240      2.00000
    150       1.0525      2.00000
    151       1.1108      2.00000
    152       1.1498      2.00000
    153       1.1577      2.00000
    154       1.1690      2.00000
    155       1.2362      2.00000
    156       1.2577      2.00000
    157       1.2776      2.00000
    158       1.3033      2.00000
    159       1.3183      2.00000
    160       1.3450      2.00000
    161       1.5139      2.00000
    162       1.5890      2.00000
    163       1.6199      2.00000
    164       1.6564      2.00000
    165       1.7250      2.00000
[...]
    143       0.9042      2.00000
    144       0.9048      2.00000
    145       1.0025      2.00000
    146       1.0033      2.00000
    147       1.0069      2.00000
    148       1.0107      2.00000
    149       1.0899      2.00000
    150       1.0912      2.00000
    151       1.0968      2.00000
    152       1.0971      2.00000
    153       1.1993      2.00000
    154       1.2022      2.00000
    155       1.2041      2.00000
    156       1.2050      2.00000
    157       1.3101      2.00000
    158       1.3114      2.00000
    159       1.3452      2.00000
    160       1.3470      2.00000
    161       1.5463      2.00000
    162       1.5521      2.00000
    163       1.5996      2.00000
    164       1.6009      2.00000
    165       1.7103      2.00000
    166       1.7125      2.00000
    167       1.7805      2.00000
    168       1.7826      2.00000
    169       1.8151      2.00000
    170       1.8167      2.00000
    171       1.8473      2.00000
    172       1.8503      2.00000
    173       1.8878      2.00000
    174       1.8905      2.00000
    175       1.9211      2.00000
    176       1.9249      2.00000
    177       4.1285      0.00000
    178       4.1293      0.00000
    179       4.1720      0.00000
    180       4.1742      0.00000
    181       4.2899      0.00000
    182       4.2912      0.00000
    183       4.3526      0.00000
    184       4.3531      0.00000
    185       4.4383      0.00000
    186       4.4407      0.00000
    187       4.4950      0.00000
    188       4.4969      0.00000
    189       4.6775      0.00000
    190       4.6796      0.00000
    191       4.7972      0.00000
    192       4.7977      0.00000
    193       4.8052      0.00000
    194       4.8064      0.00000
    195       4.9051      0.00000
    196       4.9056      0.00000
    197       4.9122      0.00000
    198       4.9132      0.00000
    199       4.9950      0.00000
    200       4.9961      0.00000
    201       5.5332      0.00000
    202       5.5356      0.00000
    203       5.6730      0.00000
    204       5.6744      0.00000
    205       5.7669      0.00000
    206       5.7674      0.00000
    207       5.8483      0.00000
    208       5.8514      0.00000
    209       7.5698      0.00000
    210       7.5716      0.00000
    211       7.7494      0.00000

 k-point    36 :       0.5000    0.5000    0.5000
  band No.  band energies     occupation 
      1     -10.6126      2.00000
      2     -10.6121      2.00000
      3     -10.6115      2.00000
      4     -10.6099      2.00000
      5     -10.1749      2.00000
      6     -10.1737      2.00000
      7     -10.1734      2.00000
      8     -10.1725      2.00000
      9      -9.7253      2.00000
     10      -9.7249      2.00000
     11      -9.7247      2.00000
     12      -9.7229      2.00000
     13      -9.6892      2.00000
     14      -9.6884      2.00000
     15      -9.6882      2.00000
     16      -9.6870      2.00000
     17      -9.6044      2.00000
     18      -9.6035      2.00000
     19      -9.6032      2.00000
     20      -9.6023      2.00000
     21      -9.6004      2.00000
     22      -9.5991      2.00000
     23      -9.5984      2.00000
     24      -9.5971      2.00000
     25      -9.5586      2.00000
     26      -9.5581      2.00000
     27      -9.5558      2.00000
     28      -9.5528      2.00000
     29      -9.5348      2.00000
     30      -9.5331      2.00000
     31      -9.5313      2.00000
     32      -9.5285      2.00000
     33      -8.0178      2.00000
     34      -8.0169      2.00000
     35      -8.0146      2.00000
     36      -8.0140      2.00000
     37      -7.5562      2.00000
     38      -7.5555      2.00000
     39      -7.5550      2.00000
     40      -7.5544      2.00000
     41      -1.5681      2.00000
     42      -1.5659      2.00000
     43      -1.5631      2.00000
     44      -1.5625      2.00000
     45      -1.5330      2.00000
     46      -1.5325      2.00000
     47      -1.5322      2.00000
     48      -1.5303      2.00000
     49      -1.4678      2.00000
     50      -1.4674      2.00000
     51      -1.4670      2.00000
     52      -1.4665      2.00000
     53      -1.1704      2.00000
     54      -1.1695      2.00000
     55      -1.1666      2.00000
     56      -1.1639      2.00000
     57      -1.0864      2.00000
     58      -1.0844      2.00000
     59      -1.0826      2.00000
     60      -1.0818      2.00000
     61      -1.0597      2.00000
     62      -1.0583      2.00000
     63      -1.0504      2.00000
     64      -1.0482      2.00000
     65      -0.9228      2.00000
     66      -0.9208      2.00000
     67      -0.9171      2.00000
     68      -0.9144      2.00000
     69      -0.8363      2.00000
     70      -0.8357      2.00000
     71      -0.8328      2.00000
     72      -0.8270      2.00000
     73      -0.8067      2.00000
     74      -0.8063      2.00000
     75      -0.8040      2.00000
     76      -0.8022      2.00000
     77      -0.7378      2.00000
     78      -0.7363      2.00000
     79      -0.7348      2.00000
     80      -0.7331      2.00000
     81      -0.6496      2.00000
     82      -0.6485      2.00000
     83      -0.6472      2.00000
     84      -0.6462      2.00000
     85      -0.4864      2.00000
     86      -0.4851      2.00000
     87      -0.4845      2.00000
     88      -0.4823      2.00000
     89      -0.3711      2.00000
     90      -0.3698      2.00000
     91      -0.3676      2.00000
     92      -0.3650      2.00000
     93      -0.3047      2.00000
     94      -0.3033      2.00000
     95      -0.3026      2.00000
     96      -0.3005      2.00000
     97      -0.2570      2.00000
     98      -0.2564      2.00000
     99      -0.2549      2.00000
    100      -0.2541      2.00000
    101      -0.1540      2.00000
    102      -0.1524      2.00000
    103      -0.1517      2.00000
    104      -0.1514      2.00000
    105      -0.1409      2.00000
    106      -0.1397      2.00000
    107      -0.1388      2.00000
    108      -0.1361      2.00000
    109      -0.0694      2.00000
    110      -0.0666      2.00000
    111      -0.0664      2.00000
    112      -0.0652      2.00000
    113       0.1281      2.00000
    114       0.1286      2.00000
    115       0.1312      2.00000
    116       0.1335      2.00000
    117       0.3067      2.00000
    118       0.3086      2.00000
    119       0.3091      2.00000
    120       0.3110      2.00000
    121       0.3476      2.00000
    122       0.3495      2.00000
    123       0.3524      2.00000
    124       0.3546      2.00000
    125       0.5208      2.00000
    126       0.5212      2.00000
    127       0.5224      2.00000
    128       0.5229      2.00000
    129       0.6081      2.00000
    130       0.6086      2.00000
    131       0.6103      2.00000
    132       0.6117      2.00000
    133       0.6670      2.00000
    134       0.6685      2.00000
    135       0.6698      2.00000
    136       0.6736      2.00000
    137       0.8203      2.00000
    138       0.8214      2.00000
    139       0.8265      2.00000
    140       0.8278      2.00000
    141       0.9167      2.00000
    142       0.9174      2.00000
    143       0.9179      2.00000
    144       0.9195      2.00000
    145       1.0573      2.00000
    146       1.0592      2.00000
    147       1.0601      2.00000
    148       1.0608      2.00000
    149       1.1458      2.00000
    150       1.1460      2.00000
    151       1.1473      2.00000
    152       1.1486      2.00000
    153       1.1857      2.00000
    154       1.1884      2.00000
    155       1.1891      2.00000
    156       1.1907      2.00000
    157       1.3085      2.00000
    158       1.3102      2.00000
    159       1.3113      2.00000
    160       1.3121      2.00000
    161       1.6766      2.00000
    162       1.6844      2.00000
    163       1.6850      2.00000
    164       1.6854      2.00000
    165       1.7797      2.00000
    166       1.7831      2.00000
    167       1.7838      2.00000
    168       1.7850      2.00000
    169       1.8074      2.00000
    170       1.8079      2.00000
    171       1.8103      2.00000
    172       1.8128      2.00000
    173       1.9001      2.00000
    174       1.9028      2.00000
    175       1.9037      2.00000
    176       1.9091      2.00000
    177       4.0241      0.00000
    178       4.0247      0.00000
    179       4.0253      0.00000
    180       4.0261      0.00000
    181       4.2462      0.00000
    182       4.2478      0.00000
    183       4.2483      0.00000
    184       4.2498      0.00000
    185       4.3857      0.00000
    186       4.3882      0.00000
    187       4.3891      0.00000
    188       4.3914      0.00000
    189       4.7901      0.00000
    190       4.7916      0.00000
    191       4.7922      0.00000
    192       4.7932      0.00000
    193       4.8997      0.00000
    194       4.9018      0.00000
    195       4.9021      0.00000
    196       4.9025      0.00000
    197       5.0704      0.00000
    198       5.0708      0.00000
    199       5.0738      0.00000
    200       5.0754      0.00000
    201       5.5903      0.00000
    202       5.5911      0.00000
    203       5.5993      0.00000
    204       5.6041      0.00000
    205       5.7173      0.00000
    206       5.7184      0.00000
    207       5.7252      0.00000
    208       5.7284      0.00000
    209       7.5391      0.00000
    210       7.5430      0.00000
    211       7.5453      0.00000


--------------------------------------------------------------------------------------------------------


 soft charge-density along one line, spin component           1
         0         1         2         3         4         5         6         7         8         9
 total charge-density along one line
 
 pseudopotential strength for first ion, spin component:           1
 -6.433  -0.000  -0.001  -0.000   0.000  -6.569  -0.000  -0.001
 -0.000  -6.429  -0.000   0.001  -0.000  -0.000  -6.565  -0.000
 -0.001  -0.000  -6.420  -0.000  -0.000  -0.001  -0.000  -6.556
 -0.000   0.001  -0.000  -6.429   0.000  -0.000   0.001  -0.000
  0.000  -0.000  -0.000   0.000  -6.426   0.000  -0.000  -0.000
 -6.569  -0.000  -0.001  -0.000   0.000  -6.674  -0.000  -0.001
 -0.000  -6.565  -0.000   0.001  -0.000  -0.000  -6.670  -0.000
 -0.001  -0.000  -6.556  -0.000  -0.000  -0.001  -0.000  -6.661
 -0.000   0.001  -0.000  -6.565   0.000  -0.000   0.001  -0.000
  0.000  -0.000  -0.000   0.000  -6.561   0.000  -0.000  -0.000
  0.001  -0.000   0.000  -0.000  -0.000   0.001  -0.000   0.000
  0.001  -0.001   0.000  -0.001  -0.000   0.001  -0.001   0.000
  0.006  -0.000   0.004   0.000   0.007   0.006  -0.000   0.004
  0.000  -0.006  -0.000   0.006  -0.000   0.000  -0.006  -0.000
 -0.006   0.000  -0.004  -0.000   0.007  -0.006   0.000  -0.004
  0.008  -0.000   0.005   0.000   0.008   0.007  -0.000   0.005
  0.000  -0.008  -0.000   0.007   0.000   0.000  -0.007  -0.000
 -0.008   0.000  -0.005  -0.000   0.008  -0.007   0.000  -0.004
 total augmentation occupancy for first ion, spin component:           1
  2.266  -0.014  -0.129  -0.014   0.001  -0.283   0.015   0.128   0.015  -0.000  -0.124   0.021  -0.039   0.000   0.041   0.005
 -0.014   2.294  -0.017  -0.014   0.038   0.015  -0.309   0.014   0.006  -0.041   0.056  -0.012   0.011   0.046   0.002  -0.001
 -0.129  -0.017   4.238  -0.013  -0.002   0.128   0.014  -2.073   0.011   0.002  -0.134   0.016   0.101  -0.001  -0.098  -0.003
 -0.014  -0.014  -0.013   2.291  -0.038   0.015   0.006   0.011  -0.306   0.041   0.054  -0.012  -0.002  -0.044  -0.010   0.000
  0.001   0.038  -0.002  -0.038   3.921  -0.000  -0.041   0.002   0.041  -1.768   0.001  -0.000   0.153  -0.005   0.149  -0.006
 -0.283   0.015   0.128   0.015  -0.000   0.282  -0.016  -0.127  -0.016   0.000   0.113  -0.024   0.027  -0.000  -0.028  -0.002
  0.015  -0.309   0.014   0.006  -0.041  -0.016   0.307  -0.012   0.000   0.043  -0.050   0.012  -0.009  -0.034  -0.001   0.001
  0.128   0.014  -2.073   0.011   0.002  -0.127  -0.012   1.908  -0.010  -0.001   0.122  -0.022  -0.092   0.001   0.089   0.006
  0.015   0.006   0.011  -0.306   0.041  -0.016   0.000  -0.010   0.304  -0.043  -0.048   0.012   0.001   0.032   0.008  -0.000
 -0.000  -0.041   0.002   0.041  -1.768   0.000   0.043  -0.001  -0.043   1.616  -0.001   0.000  -0.141   0.005  -0.137   0.009
 -0.124   0.056  -0.134   0.054   0.001   0.113  -0.050   0.122  -0.048  -0.001   1.434  -0.307   0.047   0.001  -0.046  -0.004
  0.021  -0.012   0.016  -0.012  -0.000  -0.024   0.012  -0.022   0.012   0.000  -0.307   0.070  -0.010  -0.000   0.010   0.001
 -0.039   0.011   0.101  -0.002   0.153   0.027  -0.009  -0.092   0.001  -0.141   0.047  -0.010   0.085  -0.003   0.008  -0.006
  0.000   0.046  -0.001  -0.044  -0.005  -0.000  -0.034   0.001   0.032   0.005   0.001  -0.000  -0.003   0.097  -0.003   0.000
  0.041   0.002  -0.098  -0.010   0.149  -0.028  -0.001   0.089   0.008  -0.137  -0.046   0.010   0.008  -0.003   0.085  -0.001
  0.005  -0.001  -0.003   0.000  -0.006  -0.002   0.001   0.006  -0.000   0.009  -0.004   0.001  -0.006   0.000  -0.001   0.000
  0.000  -0.005   0.000   0.005   0.000  -0.000   0.002  -0.000  -0.002  -0.000  -0.000   0.000   0.000  -0.007   0.000  -0.000
 -0.005  -0.000   0.003   0.001  -0.005   0.002   0.000  -0.005  -0.001   0.009   0.004  -0.001  -0.001   0.000  -0.006   0.000


------------------------ aborting loop because EDIFF is reached ----------------------------------------


 


 total charge     
 
# of ion       s       p       d       tot
------------------------------------------
    1        0.240   0.151   9.320   9.712
    2        0.240   0.151   9.320   9.712
    3        0.240   0.150   9.321   9.711
    4        0.240   0.151   9.320   9.712
    5        0.241   0.151   9.320   9.712
    6        0.239   0.150   9.321   9.710
    7        0.239   0.150   9.321   9.710
    8        0.240   0.150   9.320   9.711
    9        1.834   1.404   0.138   3.376
   10        1.834   1.404   0.138   3.376
   11        1.834   1.404   0.138   3.376
   12        1.834   1.404   0.138   3.376
   13        1.834   1.404   0.138   3.376
   14        1.834   1.404   0.138   3.376
   15        1.834   1.404   0.138   3.376
   16        1.834   1.404   0.138   3.376
   17        1.518   2.744   0.012   4.274
   18        1.518   2.744   0.012   4.274
   19        1.515   2.743   0.016   4.273
   20        1.515   2.743   0.016   4.273
   21        1.515   2.743   0.016   4.273
   22        1.515   2.743   0.016   4.273
   23        1.518   2.744   0.012   4.274
   24        1.518   2.744   0.012   4.274
   25        1.515   2.743   0.016   4.273
   26        1.515   2.743   0.016   4.273
   27        1.518   2.744   0.012   4.274
   28        1.518   2.744   0.012   4.274
   29        1.518   2.744   0.012   4.274
   30        1.518   2.744   0.012   4.274
   31        1.515   2.743   0.016   4.273
   32        1.515   2.743   0.016   4.273
   33        1.518   2.744   0.012   4.274
   34        1.518   2.744   0.012   4.274
   35        1.515   2.743   0.016   4.273
   36        1.515   2.743   0.016   4.273
   37        1.515   2.743   0.016   4.273
   38        1.515   2.743   0.016   4.273
   39        1.518   2.744   0.012   4.274
   40        1.518   2.744   0.012   4.274
   41        1.515   2.743   0.016   4.273
   42        1.515   2.743   0.016   4.273
   43        1.518   2.744   0.012   4.274
   44        1.518   2.744   0.012   4.274
   45        1.518   2.744   0.012   4.274
   46        1.518   2.744   0.012   4.274
   47        1.515   2.743   0.016   4.273
   48        1.515   2.743   0.016   4.273
--------------------------------------------------
tot         65.114 100.225  76.110 241.449
 


--------------------------------------------------------------------------------------------------------



  FREE ENERGIE OF THE ION-ELECTRON SYSTEM (eV)
  ---------------------------------------------------
  free  energy   TOTEN  =      -120.11705755 eV

  energy  without entropy=     -120.11705755  energy(sigma->0) =     -120.11705755
 


--------------------------------------------------------------------------------------------------------




--------------------------------------------------------------------------------------------------------


 writing wavefunctions
     LOOP+:  cpu time  113.9766: real time  114.0682
    4ORBIT:  cpu time    0.0000: real time    0.0000
 


 total charge     
 
# of ion       s       p       d       tot
------------------------------------------
    1        0.240   0.151   9.320   9.712
    2        0.240   0.151   9.320   9.712
    3        0.240   0.150   9.321   9.711
    4        0.240   0.151   9.320   9.712
    5        0.241   0.151   9.320   9.712
    6        0.239   0.150   9.321   9.710
    7        0.239   0.150   9.321   9.710
    8        0.240   0.150   9.320   9.711
    9        1.834   1.404   0.138   3.376
   10        1.834   1.404   0.138   3.376
   11        1.834   1.404   0.138   3.376
   12        1.834   1.404   0.138   3.376
   13        1.834   1.404   0.138   3.376
   14        1.834   1.404   0.138   3.376
   15        1.834   1.404   0.138   3.376
   16        1.834   1.404   0.138   3.376
   17        1.518   2.744   0.012   4.274
   18        1.518   2.744   0.012   4.274
   19        1.515   2.743   0.016   4.273
   20        1.515   2.743   0.016   4.273
   21        1.515   2.743   0.016   4.273
   22        1.515   2.743   0.016   4.273
   23        1.518   2.744   0.012   4.274
   24        1.518   2.744   0.012   4.274
   25        1.515   2.743   0.016   4.273
   26        1.515   2.743   0.016   4.273
   27        1.518   2.744   0.012   4.274
   28        1.518   2.744   0.012   4.274
   29        1.518   2.744   0.012   4.274
   30        1.518   2.744   0.012   4.274
   31        1.515   2.743   0.016   4.273
   32        1.515   2.743   0.016   4.273
   33        1.518   2.744   0.012   4.274
   34        1.518   2.744   0.012   4.274
   35        1.515   2.743   0.016   4.273
   36        1.515   2.743   0.016   4.273
   37        1.515   2.743   0.016   4.273
   38        1.515   2.743   0.016   4.273
   39        1.518   2.744   0.012   4.274
   40        1.518   2.744   0.012   4.274
   41        1.515   2.743   0.016   4.273
   42        1.515   2.743   0.016   4.273
   43        1.518   2.744   0.012   4.274
   44        1.518   2.744   0.012   4.274
   45        1.518   2.744   0.012   4.274
   46        1.518   2.744   0.012   4.274
   47        1.515   2.743   0.016   4.273
   48        1.515   2.743   0.016   4.273
--------------------------------------------------
tot         65.114 100.225  76.110 241.449
 
 BZINTS: Fermi energy:    1.981515;  352.000000 electrons
         Band energy:-0.731925E+03;  BLOECHL correction:    0.000000

 total amount of memory used by VASP MPI-rank0  2748304. kBytes
=======================================================================

   base      :      30000. kBytes
   nonl-proj :     299765. kBytes
   fftplans  :      34720. kBytes
   grid      :      70000. kBytes
   one-center:        746. kBytes
   wavefun   :    2313073. kBytes
 
  
  
 General timing and accounting informations for this job:
 ========================================================
  
                  Total CPU time used (sec):      153.151
                            User time (sec):      148.523
                          System time (sec):        4.627
                         Elapsed time (sec):      154.823
  
                   Maximum memory used (kb):     4303708.
                   Average memory used (kb):           0.
  
                          Minor page faults:       416332
                          Major page faults:            0
                 Voluntary context switches:         2573
