 vasp.6.1.0 28Jan20 (build Jan 13 2021 21:44:47) complex                        
  
 executed on             LinuxIFC date 2021.09.12  19:23:32
 running on    9 total cores
 distrk:  each k-point on    1 cores,    9 groups
 distr:  one band on NCORE=   1 cores,    1 groups


--------------------------------------------------------------------------------------------------------


 INCAR:
 POTCAR:    PAW_PBE Ag 02Apr2005                  
 POTCAR:    PAW_PBE Bi 08Apr2002                  
 POTCAR:    PAW_PBE I 08Apr2002                   
 -----------------------------------------------------------------------------
|                                                                             |
|           W    W    AA    RRRRR   N    N  II  N    N   GGGG   !!!           |
|           W    W   A  A   R    R  NN   N  II  NN   N  G    G  !!!           |
|           W    W  A    A  R    R  N N  N  II  N N  N  G       !!!           |
|           W WW W  AAAAAA  RRRRR   N  N N  II  N  N N  G  GGG   !            |
|           WW  WW  A    A  R   R   N   NN  II  N   NN  G    G                |
|           W    W  A    A  R    R  N    N  II  N    N   GGGG   !!!           |
|                                                                             |
|     For optimal performance we recommend to set                             |
|       NCORE = 4 - approx SQRT(number of cores).                             |
|     NCORE specifies how many cores store one orbital (NPAR=cpu/NCORE).      |
|     This setting can greatly improve the performance of VASP for DFT.       |
|     The default, NCORE=1 might be grossly inefficient on modern             |
|     multi-core architectures or massively parallel machines. Do your        |
|     own testing!!!!                                                         |
|     Unfortunately you need to use the default for GW and RPA                |
|     calculations (for HF NCORE is supported but not extensively tested      |
|     yet).                                                                   |
|                                                                             |
 -----------------------------------------------------------------------------

 POTCAR:    PAW_PBE Ag 02Apr2005                  
   VRHFIN =Ag : s1 d10                                                                              
   LEXCH  = PE                                                                                      
   EATOM  =  1037.2675 eV,   76.2370 Ry                                                             
                                                                                                    
   TITEL  = PAW_PBE Ag 02Apr2005                                                                    
   LULTRA =        F    use ultrasoft PP ?                                                          
   IUNSCR =        1    unscreen: 0-lin 1-nonlin 2-no                                               
   RPACOR =    2.000    partial core radius                                                         
   POMASS =  107.868; ZVAL   =   11.000    mass and valenz                                          
   RCORE  =    2.500    outmost cutoff radius                                                       
   RWIGS  =    2.840; RWIGS  =    1.503    wigner-seitz radius (au A)                               
   ENMAX  =  249.844; ENMIN  =  187.383 eV                                                          
   ICORE  =        3    local potential                                                             
   LCOR   =        T    correct aug charges                                                         
   LPAW   =        T    paw PP                                                                      
   EAUG   =  412.496                                                                                
   DEXC   =    0.000                                                                                
   RMAX   =    2.560    core radius for proj-oper                                                   
   RAUG   =    1.300    factor for augmentation sphere                                              
   RDEP   =    2.576    radius for radial grids                                                     
   RDEPT  =    2.072    core radius for aug-charge                                                  
                                                                                                    
   Atomic configuration                                                                             
   12 entries                                                                                       
     n  l   j            E        occ.                                                              
     1  0  0.50    -25324.9161   2.0000                                                             
     2  0  0.50     -3728.5341   2.0000                                                             
     2  1  1.50     -3344.0404   6.0000                                                             
     3  0  0.50      -683.5581   2.0000                                                             
     3  1  1.50      -557.3225   6.0000                                                             
     3  2  2.50      -358.3853  10.0000                                                             
     4  0  0.50       -95.0341   2.0000                                                             
     4  1  1.50       -58.5511   6.0000                                                             
     4  2  2.50        -7.4440  10.0000                                                             
     5  0  0.50        -4.4045   1.0000                                                             
     5  1  0.50        -1.3606   0.0000                                                             
     4  3  2.50        -1.3606   0.0000                                                             
   Description                                                                                      
     l       E           TYP  RCUT    TYP  RCUT                                                     
     2     -7.4439781     23  2.400                                                                 
     2     -8.8045607     23  2.400                                                                 
     0     -4.4044681     23  2.400                                                                 
     0      1.9520038     23  2.400                                                                 
     1     -1.3605826     23  2.500                                                                 
     1     27.2116520     23  2.500                                                                 
     3     -4.0817478     23  2.400                                                                 
  local pseudopotential read in
  partial core-charges read in
  partial kinetic energy density read in
  atomic valenz-charges read in
  non local Contribution for L=           2  read in
    real space projection operators read in
  non local Contribution for L=           2  read in
    real space projection operators read in
  non local Contribution for L=           0  read in
    real space projection operators read in
  non local Contribution for L=           0  read in
    real space projection operators read in
  non local Contribution for L=           1  read in
    real space projection operators read in
  non local Contribution for L=           1  read in
    real space projection operators read in
    PAW grid and wavefunctions read in
 
   number of l-projection  operators is LMAX  =           6
   number of lm-projection operators is LMMAX =          18
 
 POTCAR:    PAW_PBE Bi 08Apr2002                  
   VRHFIN =Bi:                                                                                      
   LEXCH  = PE                                                                                      
   EATOM  =   150.8133 eV,   11.0845 Ry                                                             
                                                                                                    
   TITEL  = PAW_PBE Bi 08Apr2002                                                                    
   LULTRA =        F    use ultrasoft PP ?                                                          
   IUNSCR =        1    unscreen: 0-lin 1-nonlin 2-no                                               
   RPACOR =    2.200    partial core radius                                                         
   POMASS =  208.980; ZVAL   =    5.000    mass and valenz                                          
   RCORE  =    3.000    outmost cutoff radius                                                       
   RWIGS  =    3.090; RWIGS  =    1.635    wigner-seitz radius (au A)                               
   ENMAX  =  105.037; ENMIN  =   78.777 eV                                                          
   ICORE  =        3    local potential                                                             
   LCOR   =        T    correct aug charges                                                         
   LPAW   =        T    paw PP                                                                      
   EAUG   =  265.427                                                                                
   DEXC   =    0.000                                                                                
   RMAX   =    3.067    core radius for proj-oper                                                   
   RAUG   =    1.300    factor for augmentation sphere                                              
   RDEP   =    3.012    radius for radial grids                                                     
   RDEPT  =    2.604    core radius for aug-charge                                                  
                                                                                                    
   Atomic configuration                                                                             
   17 entries                                                                                       
     n  l   j            E        occ.                                                              
     1  0  0.50    -90639.6582   2.0000                                                             
     2  0  0.50    -16282.4667   2.0000                                                             
     2  1  1.50    -13922.8287   6.0000                                                             
     3  0  0.50     -3930.4763   2.0000                                                             
     3  1  1.50     -3256.7013   6.0000                                                             
     3  2  2.50     -2581.6169  10.0000                                                             
     4  0  0.50      -902.2614   2.0000                                                             
     4  1  1.50      -681.5915   6.0000                                                             
     4  2  2.50      -429.8249  10.0000                                                             
     4  3  3.50      -152.6004  14.0000                                                             
     5  0  0.50      -157.7156   2.0000                                                             
     5  1  1.50       -95.8054   6.0000                                                             
     5  2  2.50       -27.0806  10.0000                                                             
     6  0  0.50       -14.4732   2.0000                                                             
     6  1  1.50        -4.5702   3.0000                                                             
     6  2  2.50        -2.7212   0.0000                                                             
     5  3  2.50        -2.7212   0.0000                                                             
   Description                                                                                      
     l       E           TYP  RCUT    TYP  RCUT                                                     
     0    -14.4732299     23  3.000                                                                 
     0    -12.2452434     23  3.000                                                                 
     1     -4.5701666     23  3.000                                                                 
     1    -13.6058260     23  3.000                                                                 
     2     -2.7211652     23  3.000                                                                 
     3     -1.3605826      7  3.000                                                                 
  local pseudopotential read in
  partial core-charges read in
  partial kinetic energy density read in
  kinetic energy density of atom read in
  atomic valenz-charges read in
  non local Contribution for L=           0  read in
    real space projection operators read in
  non local Contribution for L=           0  read in
    real space projection operators read in
  non local Contribution for L=           1  read in
    real space projection operators read in
  non local Contribution for L=           1  read in
    real space projection operators read in
  non local Contribution for L=           2  read in
    real space projection operators read in
    PAW grid and wavefunctions read in
 
   number of l-projection  operators is LMAX  =           5
   number of lm-projection operators is LMMAX =          13
 
 POTCAR:    PAW_PBE I 08Apr2002                   
   VRHFIN =I : s2p5                                                                                 
   LEXCH  = PE                                                                                      
   EATOM  =   315.8678 eV,   23.2156 Ry                                                             
                                                                                                    
   TITEL  = PAW_PBE I 08Apr2002                                                                     
   LULTRA =        F    use ultrasoft PP ?                                                          
   IUNSCR =        1    unscreen: 0-lin 1-nonlin 2-no                                               
   RPACOR =    2.200    partial core radius                                                         
   POMASS =  126.904; ZVAL   =    7.000    mass and valenz                                          
   RCORE  =    2.300    outmost cutoff radius                                                       
   RWIGS  =    2.810; RWIGS  =    1.487    wigner-seitz radius (au A)                               
   ENMAX  =  175.647; ENMIN  =  131.735 eV                                                          
   ICORE  =        3    local potential                                                             
   LCOR   =        T    correct aug charges                                                         
   LPAW   =        T    paw PP                                                                      
   EAUG   =  370.139                                                                                
   DEXC   =    0.000                                                                                
   RMAX   =    2.359    core radius for proj-oper                                                   
   RAUG   =    1.300    factor for augmentation sphere                                              
   RDEP   =    2.392    radius for radial grids                                                     
   RDEPT  =    2.170    core radius for aug-charge                                                  
                                                                                                    
   Atomic configuration                                                                             
   13 entries                                                                                       
     n  l   j            E        occ.                                                              
     1  0  0.50    -32976.3739   2.0000                                                             
     2  0  0.50     -5094.5933   2.0000                                                             
     2  1  1.50     -4572.0131   6.0000                                                             
     3  0  0.50     -1028.2813   2.0000                                                             
     3  1  1.50      -859.0250   6.0000                                                             
     3  2  2.50      -605.7620  10.0000                                                             
     4  0  0.50      -180.5540   2.0000                                                             
     4  1  1.50      -127.5306   6.0000                                                             
     4  2  2.50       -50.2720  10.0000                                                             
     5  0  0.50       -17.4058   2.0000                                                             
     5  1  0.50        -7.0851   5.0000                                                             
     5  2  1.50        -7.0750   0.0000                                                             
     4  3  2.50        -7.0750   0.0000                                                             
   Description                                                                                      
     l       E           TYP  RCUT    TYP  RCUT                                                     
     0    -17.4058016     23  2.300                                                                 
     0    -18.7663842     23  2.300                                                                 
     1     -7.0850686     23  2.300                                                                 
     1     -4.2150896     23  2.300                                                                 
     2     -7.0750295     23  2.300                                                                 
     3     -1.3605826     23  2.300                                                                 
  local pseudopotential read in
  partial core-charges read in
  partial kinetic energy density read in
  atomic valenz-charges read in
  non local Contribution for L=           0  read in
    real space projection operators read in
  non local Contribution for L=           0  read in
    real space projection operators read in
  non local Contribution for L=           1  read in
    real space projection operators read in
  non local Contribution for L=           1  read in
    real space projection operators read in
  non local Contribution for L=           2  read in
    real space projection operators read in
    PAW grid and wavefunctions read in
 
   number of l-projection  operators is LMAX  =           5
   number of lm-projection operators is LMMAX =          13
 
 -----------------------------------------------------------------------------
|                                                                             |
|               ----> ADVICE to this user running VASP <----                  |
|                                                                             |
|     You have a (more or less) 'large supercell' and for larger cells it     |
|     might be more efficient to use real-space projection operators.         |
|     Therefore, try LREAL= Auto in the INCAR file.                           |
|     Mind: For very accurate calculation, you might also keep the            |
|     reciprocal projection scheme (i.e. LREAL=.FALSE.).                      |
|                                                                             |
 -----------------------------------------------------------------------------

  PAW_PBE Ag 02Apr2005                  :
 energy of atom  1       EATOM=-1037.2675
 kinetic energy error for atom=    0.0686 (will be added to EATOM!!)
  PAW_PBE Bi 08Apr2002                  :
 energy of atom  2       EATOM= -150.8133
 kinetic energy error for atom=    0.0004 (will be added to EATOM!!)
  PAW_PBE I 08Apr2002                   :
 energy of atom  3       EATOM= -315.8678
 kinetic energy error for atom=    0.0044 (will be added to EATOM!!)
 
 
 POSCAR: Generation Seed Number
  positions in direct lattice
  velocities in cartesian coordinates
 exchange correlation table for  LEXCH =        8
   RHO(1)=    0.500       N(1)  =     2000
   RHO(2)=  100.500       N(2)  =     4000
 


--------------------------------------------------------------------------------------------------------


 ion  position               nearest neighbor table
   1  0.500  0.525  0.975-  23 2.96  19 2.96  40 2.97  31 2.97
   2  0.725  0.755  0.988-  48 2.94  31 2.98  21 3.06  23 3.12  47 3.21  27 3.58
   3  1.000  0.224  0.276-  41 2.95  45 2.95  33 2.96  26 2.96
   4  0.225  0.994  0.260-  18 2.94  33 2.98  43 3.08  17 3.13  41 3.17  37 3.58
   5  0.748  0.998  0.747-  48 3.02  22 3.04  46 3.06  21 3.09  38 3.25  34 3.29
   6  0.275  0.513  0.746-  44 2.94  40 2.98  20 3.06  19 3.11  42 3.23  36 3.58
   7  0.775  0.241  0.506-  22 2.94  26 2.98  46 3.08  24 3.14  45 3.16  30 3.58
   8  0.250  0.753  0.502-  44 3.02  18 3.03  43 3.05  20 3.09  28 3.26  32 3.27
   9  0.996  0.998  0.002-  21 3.03  33 3.06  27 3.13  25 3.14  34 3.20  17 3.20
  10  0.249  0.252  0.002-  41 3.07  19 3.08  25 3.14  29 3.14  42 3.18  17 3.18
  11  0.004  0.499  0.502-  20 3.03  26 3.06  36 3.12  35 3.14  24 3.20  28 3.20
  12  1.000  0.751  0.750-  34 3.11  28 3.11  44 3.11  48 3.11  27 3.14  36 3.14
  13  0.500  0.000  0.500-  22 3.11  18 3.11  32 3.12  38 3.12  37 3.14  30 3.14
  14  0.750  0.498  0.248-  45 3.07  23 3.08  35 3.14  39 3.14  47 3.18  24 3.18
  15  0.497  0.751  0.250-  43 3.04  31 3.06  37 3.13  39 3.14  47 3.19  32 3.20
  16  0.503  0.251  0.749-  46 3.04  40 3.06  30 3.13  29 3.14  42 3.18  38 3.20
  17  0.247  0.002  0.015-   4 3.13  10 3.18   9 3.20
  18  0.256  0.991  0.488-   4 2.94   8 3.03  13 3.11
  19  0.270  0.492  0.989-   1 2.96  10 3.08   6 3.11
  20  0.242  0.511  0.508-  11 3.03   6 3.06   8 3.09
  21  0.758  0.993  0.990-   9 3.03   2 3.06   5 3.09
  22  0.744  0.012  0.509-   7 2.94   5 3.04  13 3.11
  23  0.730  0.510  0.008-   1 2.96  14 3.08   2 3.12
  24  0.753  0.486  0.498-   7 3.14  14 3.18  11 3.20
  25  0.003  0.245  0.989-  10 3.14   9 3.14
  26  0.008  0.259  0.506-   3 2.96   7 2.98  11 3.06
  27  0.006  0.753  0.997-   9 3.13  12 3.14   2 3.58
  28  0.993  0.750  0.505-  12 3.11  11 3.20   8 3.26
  29  0.496  0.240  0.996-  10 3.14  16 3.14
  30  0.493  0.247  0.504-  16 3.13  13 3.14   7 3.58
  31  0.492  0.755  0.009-   1 2.97   2 2.98  15 3.06
  32  0.507  0.756  0.501-  13 3.12  15 3.20   8 3.27
  33  0.991  0.994  0.242-   3 2.96   4 2.98   9 3.06
  34  0.007  0.995  0.750-  12 3.11   9 3.20   5 3.29
  35  0.996  0.511  0.256-  14 3.14  11 3.14
  36  0.993  0.504  0.747-  11 3.12  12 3.14   6 3.58
  37  0.507  0.997  0.253-  15 3.13  13 3.14   4 3.58
  38  0.493  0.999  0.745-  13 3.12  16 3.20   5 3.25
  39  0.504  0.505  0.260-  14 3.14  15 3.14
  40  0.508  0.491  0.745-   1 2.97   6 2.98  16 3.06
  41  0.229  0.242  0.242-   3 2.95  10 3.07   4 3.17
  42  0.253  0.261  0.752-  10 3.18  16 3.18   6 3.23
  43  0.258  0.755  0.262-  15 3.04   8 3.05   4 3.08
  44  0.244  0.742  0.739-   6 2.94   8 3.02  12 3.11
  45  0.771  0.258  0.258-   3 2.95  14 3.07   7 3.16
  46  0.741  0.238  0.745-  16 3.04   5 3.06   7 3.08
  47  0.747  0.748  0.239-  14 3.18  15 3.19   2 3.21
  48  0.756  0.761  0.759-   2 2.94   5 3.02  12 3.11
 
 -----------------------------------------------------------------------------
|                                                                             |
|           W    W    AA    RRRRR   N    N  II  N    N   GGGG   !!!           |
|           W    W   A  A   R    R  NN   N  II  NN   N  G    G  !!!           |
|           W    W  A    A  R    R  N N  N  II  N N  N  G       !!!           |
|           W WW W  AAAAAA  RRRRR   N  N N  II  N  N N  G  GGG   !            |
|           WW  WW  A    A  R   R   N   NN  II  N   NN  G    G                |
|           W    W  A    A  R    R  N    N  II  N    N   GGGG   !!!           |
|                                                                             |
|     The determination of the symmetry of your systems shows a strong        |
|     dependence on the tolerance parameter SYMPREC. This is often the        |
|     result of "noise" in the structural parameters (lattice vectors         |
|     and/or ionic positions). Set NWRITE=3 for more details.                 |
|                                                                             |
 -----------------------------------------------------------------------------

  LATTYP: Found a base centered monoclinic cell.
 ALAT       =    54.0022961723
 B/A-ratio  =     0.3332386048
 C/A-ratio  =     0.2356880205
 COS(beta)  =    -0.9428231503
  
  Lattice vectors:
  
 A1 = (  12.7276841233,  25.4564166513,   0.0031452930)
 A2 = (   0.0024847743,  25.4564299466,  12.7276379908)
 A3 = (  -0.0007922309, -12.7276942246,  -0.0009760273)


Analysis of symmetry for initial positions (statically):
=====================================================================
 Subroutine PRICEL returns:
 Original cell was already a primitive cell.
 

 Routine SETGRP: Setting up the symmetry group for a 
 base centered monoclinic supercell.


 Subroutine GETGRP returns: Found  1 space group operations
 (whereof  1 operations were pure point group operations)
 out of a pool of  4 trial point group operations.


The static configuration has the point symmetry C_1 .


Analysis of symmetry for dynamics (positions and initial velocities):
=====================================================================
 Subroutine PRICEL returns:
 Original cell was already a primitive cell.
 

 Routine SETGRP: Setting up the symmetry group for a 
 base centered monoclinic supercell.


 Subroutine GETGRP returns: Found  1 space group operations
 (whereof  1 operations were pure point group operations)
 out of a pool of  4 trial point group operations.


The dynamic configuration has the point symmetry C_1 .


 Subroutine INISYM returns: Found  1 space group operations
 (whereof  1 operations are pure point group operations),
 and found     1 'primitive' translations


----------------------------------------------------------------------------------------

                                     Primitive cell                                     

  volume of cell :    2061.2290

  direct lattice vectors                    reciprocal lattice vectors
    12.726099661  0.001028202  0.001193238     0.078578672 -0.000004891 -0.000005559
     0.000792231 12.727694225  0.000976027    -0.000006347  0.078568827 -0.000006430
     0.000900312  0.001041497 12.725685936    -0.000007368 -0.000006026  0.078581227

  length of vectors
    12.726099759 12.727694287 12.725686011     0.078578672  0.078568828  0.078581227

  position of ions in fractional coordinates (direct lattice)
     0.499948892  0.524689784  0.975391066
     0.725091320  0.754900480  0.988107233
     0.999969836  0.224305211  0.276054350
     0.225156643  0.994186189  0.259652233
     0.748390575  0.998172922  0.747361066
     0.274703532  0.513107124  0.745628279
     0.774602423  0.240541486  0.506086957
     0.249561153  0.753227422  0.502103101
     0.995812197  0.998349036  0.001665521
     0.249432362  0.251907973  0.002041031
     0.003815823  0.498760112  0.502245015
     0.999873017  0.750753502  0.749878798
     0.499951229  0.000343295  0.499780237
     0.750286225  0.498106203  0.248361955
     0.496682996  0.751111227  0.249687739
     0.502907427  0.250617365  0.749067459
     0.247064159  0.002039937  0.014703837
     0.255754555  0.991038313  0.488485857
     0.269832576  0.492428581  0.989378962
     0.241632661  0.510600043  0.507805387
     0.758074694  0.993115905  0.989928706
     0.744135903  0.011704375  0.509280585
     0.729869402  0.510468218  0.007857114
     0.752693042  0.485967635  0.498335864
     0.003449437  0.244871676  0.989357818
     0.008311936  0.258754538  0.506322162
     0.006482319  0.753088666  0.996558727
     0.993108451  0.750150102  0.505417040
     0.495770745  0.240119276  0.995582744
     0.493057814  0.246694792  0.503592060
     0.491924434  0.755369748  0.009393901
     0.506865630  0.755613860  0.500759854
     0.991366775  0.994100256  0.241805475
     0.006521888  0.994994587  0.750366283
     0.996233224  0.510907377  0.255586189
     0.993336155  0.503949104  0.747464091
     0.506617558  0.996612492  0.253497718
     0.493030423  0.999469043  0.744694149
     0.503907569  0.504675966  0.260216496
     0.507610848  0.490831343  0.744672258
     0.228539728  0.242469823  0.242351169
     0.252852760  0.260545025  0.752399314
     0.258324595  0.754695247  0.262294338
     0.244087665  0.741950655  0.739159976
     0.771192716  0.257894046  0.258142742
     0.741353453  0.238113160  0.745448901
     0.746890677  0.747843270  0.238938835
     0.755664390  0.761335041  0.759130523

  ion indices of the primitive-cell ions
   primitive index   ion index
                 1           1
                 2           2
                 3           3
                 4           4
                 5           5
                 6           6
                 7           7
                 8           8
                 9           9
                10          10
                11          11
                12          12
                13          13
                14          14
                15          15
                16          16
                17          17
                18          18
                19          19
                20          20
                21          21
                22          22
                23          23
                24          24
                25          25
                26          26
                27          27
                28          28
                29          29
                30          30
                31          31
                32          32
                33          33
                34          34
                35          35
                36          36
                37          37
                38          38
                39          39
                40          40
                41          41
                42          42
                43          43
                44          44
                45          45
                46          46
                47          47
                48          48

----------------------------------------------------------------------------------------

 
 
 KPOINTS: agbii                                   

Automatic generation of k-mesh.
Space group operators:
 irot       det(A)        alpha          n_x          n_y          n_z        tau_x        tau_y        tau_z
    1     1.000000     0.000000     1.000000     0.000000     0.000000     0.000000     0.000000     0.000000
 TETIRR: Found    192 inequivalent tetrahedra from      384
 
 Subroutine IBZKPT returns following result:
 ===========================================
 
 Found     36 irreducible k-points:
 
 Following reciprocal coordinates:
            Coordinates               Weight
  0.000000  0.000000  0.000000      1.000000
  0.250000 -0.000000 -0.000000      2.000000
 -0.000000  0.000000 -0.250000      2.000000
  0.500000 -0.000000  0.000000      1.000000
  0.000000 -0.000000  0.500000      1.000000
  0.000000  0.250000  0.000000      2.000000
  0.250000  0.250000  0.000000      2.000000
 -0.000000 -0.250000 -0.250000      2.000000
  0.500000  0.250000 -0.000000      2.000000
 -0.000000 -0.250000  0.500000      2.000000
 -0.250000  0.250000  0.000000      2.000000
 -0.000000 -0.250000  0.250000      2.000000
  0.000000  0.500000 -0.000000      1.000000
  0.250000  0.500000  0.000000      2.000000
  0.000000  0.500000 -0.250000      2.000000
  0.500000  0.500000  0.000000      1.000000
 -0.000000  0.500000  0.500000      1.000000
  0.250000 -0.000000  0.250000      2.000000
  0.500000 -0.000000  0.250000      2.000000
 -0.250000 -0.000000  0.500000      2.000000
 -0.250000 -0.000000  0.250000      2.000000
  0.250000  0.250000  0.250000      2.000000
  0.500000  0.250000  0.250000      2.000000
 -0.250000 -0.250000  0.500000      2.000000
 -0.250000  0.250000  0.250000      2.000000
 -0.250000 -0.250000  0.250000      2.000000
  0.250000  0.500000  0.250000      2.000000
  0.500000  0.500000  0.250000      2.000000
 -0.250000  0.500000  0.500000      2.000000
 -0.250000  0.500000  0.250000      2.000000
  0.250000 -0.250000  0.250000      2.000000
  0.500000 -0.250000  0.250000      2.000000
 -0.250000  0.250000  0.500000      2.000000
  0.500000 -0.000000  0.500000      1.000000
  0.500000  0.250000  0.500000      2.000000
  0.500000  0.500000  0.500000      1.000000
 
 Following cartesian coordinates:
            Coordinates               Weight
  0.000000  0.000000  0.000000      1.000000
  0.019645 -0.000001 -0.000001      2.000000
  0.000002  0.000002 -0.019645      2.000000
  0.039289 -0.000002 -0.000003      1.000000
 -0.000004 -0.000003  0.039291      1.000000
 -0.000002  0.019642 -0.000002      2.000000
  0.019643  0.019641 -0.000003      2.000000
  0.000003 -0.019641 -0.019644      2.000000
  0.039288  0.019640 -0.000004      2.000000
 -0.000002 -0.019645  0.039292      2.000000
 -0.019646  0.019643 -0.000000      2.000000
 -0.000000 -0.019644  0.019647      2.000000
 -0.000003  0.039284 -0.000003      1.000000
  0.019641  0.039283 -0.000005      2.000000
 -0.000001  0.039286 -0.019649      2.000000
  0.039286  0.039282 -0.000006      1.000000
 -0.000007  0.039281  0.039287      1.000000
  0.019643 -0.000003  0.019644      2.000000
  0.039287 -0.000004  0.019643      2.000000
 -0.019648 -0.000002  0.039292      2.000000
 -0.019647 -0.000000  0.019647      2.000000
  0.019641  0.019639  0.019642      2.000000
  0.039286  0.019638  0.019641      2.000000
 -0.019647 -0.019644  0.039294      2.000000
 -0.019648  0.019642  0.019645      2.000000
 -0.019645 -0.019642  0.019648      2.000000
  0.019640  0.039282  0.019641      2.000000
  0.039284  0.039280  0.019639      2.000000
 -0.019652  0.039283  0.039289      2.000000
 -0.019650  0.039284  0.019643      2.000000
  0.019644 -0.019645  0.019646      2.000000
  0.039289 -0.019646  0.019644      2.000000
 -0.019650  0.019640  0.039290      2.000000
  0.039286 -0.000005  0.039288      1.000000
  0.039284  0.019637  0.039286      2.000000
  0.039282  0.039279  0.039285      1.000000
 


--------------------------------------------------------------------------------------------------------




 Dimension of arrays:
   k-points           NKPTS =     36   k-points in BZ     NKDIM =     36   number of bands    NBANDS=    211
   number of dos      NEDOS =   3000   number of ions     NIONS =     48
   non local maximal  LDIM  =      6   non local SUM 2l+1 LMDIM =     18
   total plane-waves  NPLWV = 125000
   max r-space proj   IRMAX =      1   max aug-charges    IRDMAX=   5976
   dimension x,y,z NGX =    50 NGY =   50 NGZ =   50
   dimension x,y,z NGXF=   100 NGYF=  100 NGZF=  100
   support grid    NGXF=   100 NGYF=  100 NGZF=  100
   ions per type =               8   8  32
   NGX,Y,Z   is equivalent  to a cutoff of   6.53,  6.53,  6.53 a.u.
   NGXF,Y,Z  is equivalent  to a cutoff of  13.06, 13.06, 13.06 a.u.

 SYSTEM =  unknown system                          
 POSCAR =  Generation Seed Number                  

 Startparameter for this run:
   NWRITE =      2    write-flag & timer
   PREC   = normal    normal or accurate (medium, high low for compatibility)
   ISTART =      1    job   : 0-new  1-cont  2-samecut
   ICHARG =      1    charge: 1-file 2-atom 10-const
   ISPIN  =      1    spin polarized calculation?
   LNONCOLLINEAR =      F non collinear calculations
   LSORBIT =      F    spin-orbit coupling
   INIWAV =      1    electr: 0-lowe 1-rand  2-diag
   LASPH  =      F    aspherical Exc in radial PAW
   METAGGA=      F    non-selfconsistent MetaGGA calc.

 Electronic Relaxation 1
   ENCUT  =  250.0 eV  18.37 Ry    4.29 a.u.  16.41 16.41 16.41*2*pi/ulx,y,z
   ENINI  =  250.0     initial cutoff
   ENAUG  =  412.5 eV  augmentation charge cutoff
   NELM   =     60;   NELMIN=  2; NELMDL=  0     # of ELM steps 
   EDIFF  = 0.1E-05   stopping-criterion for ELM
   LREAL  =      F    real-space projection
   NLSPLINE    = F    spline interpolate recip. space projectors
   LCOMPAT=      F    compatible to vasp.4.4
   GGA_COMPAT  = T    GGA compatible to vasp.4.4-vasp.4.6
   LMAXPAW     = -100 max onsite density
   LMAXMIX     =    4 max onsite mixed and CHGCAR
   VOSKOWN=      0    Vosko Wilk Nusair interpolation
   ROPT   =    0.00000   0.00000   0.00000
 Ionic relaxation
   EDIFFG = -.1E-01   stopping-criterion for IOM
   NSW    =      0    number of steps for IOM
   NBLOCK =      1;   KBLOCK =      1    inner block; outer block 
   IBRION =     -1    ionic relax: 0-MD 1-quasi-New 2-CG
   NFREE  =      0    steps in history (QN), initial steepest desc. (CG)
   ISIF   =     -1    stress and relaxation
   IWAVPR =     10    prediction:  0-non 1-charg 2-wave 3-comb
   ISYM   =      2    0-nonsym 1-usesym 2-fastsym
   LCORR  =      T    Harris-Foulkes like correction to forces

   POTIM  = 0.5000    time-step for ionic-motion
   TEIN   =    0.0    initial temperature
   TEBEG  =    0.0;   TEEND  =   0.0 temperature during run
   SMASS  =  -3.00    Nose mass-parameter (am)
   estimated Nose-frequenzy (Omega)   =  0.10E-29 period in steps = 0.13E+47 mass=  -0.370E-26a.u.
   SCALEE = 1.0000    scale energy and forces
   NPACO  =    256;   APACO  = 16.0  distance and # of slots for P.C.
   PSTRESS=    0.0 pullay stress

  Mass of Ions in am
   POMASS = 107.87208.98126.90
  Ionic Valenz
   ZVAL   =  11.00  5.00  7.00
  Atomic Wigner-Seitz radii
   RWIGS  =  -1.00 -1.00 -1.00
  virtual crystal weights 
   VCA    =   1.00  1.00  1.00
   NELECT =     352.0000    total number of electrons
   NUPDOWN=      -1.0000    fix difference up-down

 DOS related values:
   EMIN   =  10.00;   EMAX   =-10.00  energy-range for DOS
   EFERMI =   0.00
   ISMEAR =    -5;   SIGMA  =   0.20  broadening in eV -4-tet -1-fermi 0-gaus

 Electronic relaxation 2 (details)
   IALGO  =     38    algorithm
   LDIAG  =      T    sub-space diagonalisation (order eigenvalues)
   LSUBROT=      F    optimize rotation matrix (better conditioning)
   TURBO    =      0    0=normal 1=particle mesh
   IRESTART =      0    0=no restart 2=restart with 2 vectors
   NREBOOT  =      0    no. of reboots
   NMIN     =      0    reboot dimension
   EREF     =   0.00    reference energy to select bands
   IMIX   =      4    mixing-type and parameters
     AMIX     =   0.40;   BMIX     =  1.00
     AMIX_MAG =   1.60;   BMIX_MAG =  1.00
     AMIN     =   0.10
     WC   =   100.;   INIMIX=   1;  MIXPRE=   1;  MAXMIX= -45

 Intra band minimization:
   WEIMIN = 0.0000     energy-eigenvalue tresh-hold
   EBREAK =  0.12E-08  absolut break condition
   DEPER  =   0.30     relativ break condition  

   TIME   =   0.40     timestep for ELM

  volume/ion in A,a.u.               =      42.94       289.79
  Fermi-wavevector in a.u.,A,eV,Ry     =   0.908267  1.716376 11.224117  0.824949
  Thomas-Fermi vector in A             =   2.032173
 
 Write flags
   LWAVE        =      T    write WAVECAR
   LDOWNSAMPLE  =      F    k-point downsampling of WAVECAR
   LCHARG       =      T    write CHGCAR
   LVTOT        =      F    write LOCPOT, total local potential
   LVHAR        =      F    write LOCPOT, Hartree potential only
   LELF         =      F    write electronic localiz. function (ELF)
   LORBIT       =     10    0 simple, 1 ext, 2 COOP (PROOUT), +10 PAW based schemes


 Dipole corrections
   LMONO  =      F    monopole corrections only (constant potential shift)
   LDIPOL =      F    correct potential (dipole corrections)
   IDIPOL =      0    1-x, 2-y, 3-z, 4-all directions 
   EPSILON=  1.0000000 bulk dielectric constant

 Exchange correlation treatment:
   GGA     =    --    GGA type
   LEXCH   =     8    internal setting for exchange type
   VOSKOWN=      0    Vosko Wilk Nusair interpolation
   LHFCALC =     F    Hartree Fock is set to
   LHFONE  =     F    Hartree Fock one center treatment
   AEXX    =    0.0000 exact exchange contribution

 Linear response parameters
   LEPSILON=     F    determine dielectric tensor
   LRPA    =     F    only Hartree local field effects (RPA)
   LNABLA  =     F    use nabla operator in PAW spheres
   LVEL    =     F    velocity operator in full k-point grid
   LINTERFAST=   F  fast interpolation
   KINTER  =     0    interpolate to denser k-point grid
   CSHIFT  =0.1000    complex shift for real part using Kramers Kronig
   OMEGAMAX=  -1.0    maximum frequency
   DEG_THRESHOLD= 0.2000000E-02 threshold for treating states as degnerate
   RTIME   =   -0.100 relaxation time in fs
  (WPLASMAI=    0.000 imaginary part of plasma frequency in eV, 0.658/RTIME)
   DFIELD  = 0.0000000 0.0000000 0.0000000 field for delta impulse in time
 
 Orbital magnetization related:
   ORBITALMAG=     F  switch on orbital magnetization
   LCHIMAG   =     F  perturbation theory with respect to B field
   DQ        =  0.001000  dq finite difference perturbation B field
   LLRAUG    =     F  two centre corrections for induced B field



--------------------------------------------------------------------------------------------------------


 Static calculation
 charge density and potential will be updated during run
 non-spin polarized calculation
 Variant of blocked Davidson
 Davidson routine will perform the subspace rotation
 perform sub-space diagonalisation
    after iterative eigenvector-optimisation
 modified Broyden-mixing scheme, WC =      100.0
 initial mixing is a Kerker type mixing with AMIX =  0.4000 and BMIX =      1.0000
 Hartree-type preconditioning will be used
 using additional bands           35
 reciprocal scheme for non local part
 use partial core corrections
 calculate Harris-corrections to forces 
   (improved forces if not selfconsistent)
 use gradient corrections 
 use of overlap-Matrix (Vanderbilt PP)
 Fermi weights with tetrahedron method with Bloechl corrections


--------------------------------------------------------------------------------------------------------


  energy-cutoff  :      250.00
  volume of cell :     2061.23
      direct lattice vectors                 reciprocal lattice vectors
    12.726099661  0.001028202  0.001193238     0.078578672 -0.000004891 -0.000005559
     0.000792231 12.727694225  0.000976027    -0.000006347  0.078568827 -0.000006430
     0.000900312  0.001041497 12.725685936    -0.000007368 -0.000006026  0.078581227

  length of vectors
    12.726099759 12.727694287 12.725686011     0.078578672  0.078568828  0.078581227


 
 old parameters found on file WAVECAR:
  energy-cutoff  :      250.00
  volume of cell :     2061.23
      direct lattice vectors                 reciprocal lattice vectors
    12.726099661  0.001028202  0.001193238     0.078578672 -0.000004891 -0.000005559
     0.000792231 12.727694225  0.000976027    -0.000006347  0.078568827 -0.000006430
     0.000900312  0.001041497 12.725685936    -0.000007368 -0.000006026  0.078581227

  length of vectors

 
 k-points in units of 2pi/SCALE and weight: agbii                                   
   0.00000000  0.00000000  0.00000000       0.016
   0.01964467 -0.00000122 -0.00000139       0.031
   0.00000184  0.00000151 -0.01964531       0.031
   0.03928934 -0.00000245 -0.00000278       0.016
  -0.00000368 -0.00000301  0.03929061       0.016
  -0.00000159  0.01964221 -0.00000161       0.031
   0.01964308  0.01964098 -0.00000300       0.031
   0.00000343 -0.01964070 -0.01964370       0.031
   0.03928775  0.01963976 -0.00000439       0.031
  -0.00000210 -0.01964522  0.03929222       0.031
  -0.01964625  0.01964343 -0.00000022       0.031
  -0.00000026 -0.01964371  0.01964691       0.031
  -0.00000317  0.03928441 -0.00000321       0.016
   0.01964149  0.03928319 -0.00000460       0.031
  -0.00000133  0.03928592 -0.01964852       0.031
   0.03928616  0.03928197 -0.00000599       0.016
  -0.00000686  0.03928140  0.03928740       0.016
   0.01964283 -0.00000273  0.01964392       0.031
   0.03928749 -0.00000395  0.01964253       0.031
  -0.01964835 -0.00000179  0.03929200       0.031
  -0.01964651 -0.00000028  0.01964670       0.031
   0.01964124  0.01963948  0.01964231       0.031
   0.03928591  0.01963826  0.01964092       0.031
  -0.01964676 -0.01964400  0.03929361       0.031
  -0.01964810  0.01964192  0.01964509       0.031
  -0.01964492 -0.01964249  0.01964830       0.031
   0.01963965  0.03928168  0.01964070       0.031
   0.03928432  0.03928046  0.01963931       0.031
  -0.01965153  0.03928262  0.03928879       0.031
  -0.01964968  0.03928413  0.01964348       0.031
   0.01964441 -0.01964494  0.01964552       0.031
   0.03928908 -0.01964616  0.01964413       0.031
  -0.01964994  0.01964042  0.03929040       0.031
   0.03928565 -0.00000546  0.03928783       0.016
   0.03928407  0.01963675  0.03928623       0.031
   0.03928248  0.03927896  0.03928462       0.016
 
 k-points in reciprocal lattice and weights: agbii                                   
   0.00000000  0.00000000  0.00000000       0.016
   0.25000000 -0.00000000 -0.00000000       0.031
  -0.00000000  0.00000000 -0.25000000       0.031
   0.50000000 -0.00000000  0.00000000       0.016
   0.00000000 -0.00000000  0.50000000       0.016
   0.00000000  0.25000000  0.00000000       0.031
   0.25000000  0.25000000  0.00000000       0.031
  -0.00000000 -0.25000000 -0.25000000       0.031
   0.50000000  0.25000000 -0.00000000       0.031
  -0.00000000 -0.25000000  0.50000000       0.031
  -0.25000000  0.25000000  0.00000000       0.031
  -0.00000000 -0.25000000  0.25000000       0.031
   0.00000000  0.50000000 -0.00000000       0.016
   0.25000000  0.50000000  0.00000000       0.031
   0.00000000  0.50000000 -0.25000000       0.031
   0.50000000  0.50000000  0.00000000       0.016
  -0.00000000  0.50000000  0.50000000       0.016
   0.25000000 -0.00000000  0.25000000       0.031
   0.50000000 -0.00000000  0.25000000       0.031
  -0.25000000 -0.00000000  0.50000000       0.031
  -0.25000000 -0.00000000  0.25000000       0.031
   0.25000000  0.25000000  0.25000000       0.031
   0.50000000  0.25000000  0.25000000       0.031
  -0.25000000 -0.25000000  0.50000000       0.031
  -0.25000000  0.25000000  0.25000000       0.031
  -0.25000000 -0.25000000  0.25000000       0.031
   0.25000000  0.50000000  0.25000000       0.031
   0.50000000  0.50000000  0.25000000       0.031
  -0.25000000  0.50000000  0.50000000       0.031
  -0.25000000  0.50000000  0.25000000       0.031
   0.25000000 -0.25000000  0.25000000       0.031
   0.50000000 -0.25000000  0.25000000       0.031
  -0.25000000  0.25000000  0.50000000       0.031
   0.50000000 -0.00000000  0.50000000       0.016
   0.50000000  0.25000000  0.50000000       0.031
   0.50000000  0.50000000  0.50000000       0.016
 
 position of ions in fractional coordinates (direct lattice) 
   0.49994889  0.52468978  0.97539107
   0.72509132  0.75490048  0.98810723
   0.99996984  0.22430521  0.27605435
   0.22515664  0.99418619  0.25965223
   0.74839058  0.99817292  0.74736107
   0.27470353  0.51310712  0.74562828
   0.77460242  0.24054149  0.50608696
   0.24956115  0.75322742  0.50210310
   0.99581220  0.99834904  0.00166552
   0.24943236  0.25190797  0.00204103
   0.00381582  0.49876011  0.50224501
   0.99987302  0.75075350  0.74987880
   0.49995123  0.00034330  0.49978024
   0.75028622  0.49810620  0.24836195
   0.49668300  0.75111123  0.24968774
   0.50290743  0.25061736  0.74906746
   0.24706416  0.00203994  0.01470384
   0.25575455  0.99103831  0.48848586
   0.26983258  0.49242858  0.98937896
   0.24163266  0.51060004  0.50780539
   0.75807469  0.99311590  0.98992871
   0.74413590  0.01170438  0.50928059
   0.72986940  0.51046822  0.00785711
   0.75269304  0.48596763  0.49833586
   0.00344944  0.24487168  0.98935782
   0.00831194  0.25875454  0.50632216
   0.00648232  0.75308867  0.99655873
   0.99310845  0.75015010  0.50541704
   0.49577075  0.24011928  0.99558274
   0.49305781  0.24669479  0.50359206
   0.49192443  0.75536975  0.00939390
   0.50686563  0.75561386  0.50075985
   0.99136678  0.99410026  0.24180548
   0.00652189  0.99499459  0.75036628
   0.99623322  0.51090738  0.25558619
   0.99333616  0.50394910  0.74746409
   0.50661756  0.99661249  0.25349772
   0.49303042  0.99946904  0.74469415
   0.50390757  0.50467597  0.26021650
   0.50761085  0.49083134  0.74467226
   0.22853973  0.24246982  0.24235117
   0.25285276  0.26054502  0.75239931
   0.25832460  0.75469525  0.26229434
   0.24408767  0.74195066  0.73915998
   0.77119272  0.25789405  0.25814274
   0.74135345  0.23811316  0.74544890
   0.74689068  0.74784327  0.23893883
   0.75566439  0.76133504  0.75913052
 
 position of ions in cartesian coordinates  (Angst):
   6.36369326  6.67962105 12.41362904
   9.22907207  9.60991713 12.57594433
  12.72614203  2.85620382  3.51439309
   2.86638727 12.65419975  3.30549179
   9.52555669 12.70598760  9.51254946
   3.49698232  6.53172960  9.48945989
   9.85831384  3.06286202  6.44146273
   3.17698888  9.58762784  6.39063933
  12.67359769 12.70770689  0.02335755
   3.17450250  3.20646625  0.02651702
   0.04940785  6.34859320  6.39190368
  12.72575356  9.55717009  9.54464792
   6.36287940  0.00540393  6.36064323
   9.54883549  6.34077355  3.16195767
   6.32165716  9.56068476  3.17877352
   6.40092298  3.19107843  9.53324193
   3.14417797  0.02623304  0.18741321
   3.25598287 12.61440433  6.21759006
   3.43519712  6.26878828 12.59132854
   3.07590302  6.49953854  6.46295856
   9.64901213 12.64188603 12.59939569
   9.47041545  0.15026524  6.48184414
   9.28880223  6.49784203  0.10135631
   9.57968033  6.18654039  6.34303816
   0.04498261  3.11768578 12.59049998
   0.10643937  3.29388452  6.44355929
   0.08398847  9.58612684 12.68263615
  12.63944645  9.54922863  6.43369570
   6.31031448  3.05771138 12.67029926
   6.27535171  3.14088733  6.40938351
   6.26088625  9.61463077  0.12086808
   6.45147198  9.61826486  6.37385494
  12.61723764 12.65387525  3.07929374
   0.08446203 12.66477507  9.54990457
  12.67879816  6.50396339  3.25419697
  12.64236710  6.41590994  9.51367042
   6.44828331 12.68536398  3.22750958
   6.27581656 12.72221890  9.47830767
   6.41341204  6.42415052  3.31252726
   6.46096553  6.24844876  9.47755004
   2.90882963  3.08656917  3.08459423
   3.21871323  3.31718101  9.57535339
   3.28829858  9.60606913  3.33892022
   3.10753723  9.44434187  9.40733313
   9.81471208  3.28345836  3.28621539
   9.43539770  3.03217013  9.48746561
   9.50581278  9.51933728  3.04228170
   9.61794695  9.69160721  9.66210140
 


--------------------------------------------------------------------------------------------------------


 k-point   1 :   0.0000 0.0000 0.0000  plane waves:   18613
 k-point   2 :   0.2500-0.0000-0.0000  plane waves:   18533
 k-point   3 :  -0.0000 0.0000-0.2500  plane waves:   18533
 k-point   4 :   0.5000-0.0000 0.0000  plane waves:   18482
 k-point   5 :   0.0000-0.0000 0.5000  plane waves:   18482
 k-point   6 :   0.0000 0.2500 0.0000  plane waves:   18533
 k-point   7 :   0.2500 0.2500 0.0000  plane waves:   18509
 k-point   8 :  -0.0000-0.2500-0.2500  plane waves:   18509
 k-point   9 :   0.5000 0.2500-0.0000  plane waves:   18506
 k-point  10 :  -0.0000-0.2500 0.5000  plane waves:   18506
 k-point  11 :  -0.2500 0.2500 0.0000  plane waves:   18509
 k-point  12 :  -0.0000-0.2500 0.2500  plane waves:   18509
 k-point  13 :   0.0000 0.5000-0.0000  plane waves:   18478
 k-point  14 :   0.2500 0.5000 0.0000  plane waves:   18506
 k-point  15 :   0.0000 0.5000-0.2500  plane waves:   18506
 k-point  16 :   0.5000 0.5000 0.0000  plane waves:   18528
 k-point  17 :  -0.0000 0.5000 0.5000  plane waves:   18528
 k-point  18 :   0.2500-0.0000 0.2500  plane waves:   18509
 k-point  19 :   0.5000-0.0000 0.2500  plane waves:   18506
 k-point  20 :  -0.2500-0.0000 0.5000  plane waves:   18506
 k-point  21 :  -0.2500-0.0000 0.2500  plane waves:   18509
 k-point  22 :   0.2500 0.2500 0.2500  plane waves:   18500
 k-point  23 :   0.5000 0.2500 0.2500  plane waves:   18478
 k-point  24 :  -0.2500-0.2500 0.5000  plane waves:   18478
 k-point  25 :  -0.2500 0.2500 0.2500  plane waves:   18513
 k-point  26 :  -0.2500-0.2500 0.2500  plane waves:   18512
 k-point  27 :   0.2500 0.5000 0.2500  plane waves:   18478
 k-point  28 :   0.5000 0.5000 0.2500  plane waves:   18500
 k-point  29 :  -0.2500 0.5000 0.5000  plane waves:   18500
 k-point  30 :  -0.2500 0.5000 0.2500  plane waves:   18478
 k-point  31 :   0.2500-0.2500 0.2500  plane waves:   18509
 k-point  32 :   0.5000-0.2500 0.2500  plane waves:   18478
 k-point  33 :  -0.2500 0.2500 0.5000  plane waves:   18478
 k-point  34 :   0.5000-0.0000 0.5000  plane waves:   18528
 k-point  35 :   0.5000 0.2500 0.5000  plane waves:   18500
 k-point  36 :   0.5000 0.5000 0.5000  plane waves:   18504

 maximum and minimum number of plane-waves per node :     18613    18478

 maximum number of plane-waves:     18613
 maximum index in each direction: 
   IXMAX=   16   IYMAX=   16   IZMAX=   16
   IXMIN=  -16   IYMIN=  -16   IZMIN=  -16


 serial   3D FFT for wavefunctions
 parallel 3D FFT for charge:
    minimum data exchange during FFTs selected (reduces bandwidth)


 total amount of memory used by VASP MPI-rank0  2782079. kBytes
=======================================================================

   base      :      30000. kBytes
   nonl-proj :     303764. kBytes
   fftplans  :      34720. kBytes
   grid      :      70000. kBytes
   one-center:        746. kBytes
   wavefun   :    2342849. kBytes
 
     INWAV:  cpu time    4.5519: real time    5.2939
 Broyden mixing: mesh for mixing (old mesh)
   NGX = 33   NGY = 33   NGZ = 33
  (NGX  =100   NGY  =100   NGZ  =100)
  gives a total of  35937 points

 initial charge density was supplied:
 number of electron     352.0000487 magnetization 
 keeping initial charge density in first step


--------------------------------------------------------------------------------------------------------


 Maximum index for augmentation-charges         5612 (set IRDMAX)


--------------------------------------------------------------------------------------------------------


 First call to EWALD:  gamma=   0.139
 Maximum number of real-space cells 3x 3x 3
 Maximum number of reciprocal cells 3x 3x 3

    FEWALD:  cpu time    0.0026: real time    0.0026


--------------------------------------- Iteration      1(   1)  ---------------------------------------


    POTLOK:  cpu time    0.5830: real time    0.5969
    SETDIJ:  cpu time    0.0268: real time    0.0268
     EDDAV:  cpu time   56.8837: real time   56.8833
 BZINTS: Fermi energy:    2.053728;  352.000000 electrons
         Band energy:-0.758731E+03;  BLOECHL correction:    0.000000
       DOS:  cpu time    0.0539: real time    0.0539
    CHARGE:  cpu time    1.2122: real time    1.2123
    MIXING:  cpu time    0.0287: real time    0.0287
    --------------------------------------------
      LOOP:  cpu time   58.7885: real time   58.8020

 eigenvalue-minimisations  : 10240
 total energy-change (2. order) :-0.1199644E+03  (-0.2605734E-06)
 number of electron     352.0000487 magnetization 
 augmentation part      -23.1228109 magnetization 

 Broyden mixing:
  rms(total) = 0.66993E-03    rms(broyden)= 0.66990E-03
  rms(prec ) = 0.78739E-03
  weight for this iteration     100.00

 Free energy of the ion-electron system (eV)
  ---------------------------------------------------
  alpha Z        PSCENC =       225.93236534
  Ewald energy   TEWEN  =    -13868.72158036
  -Hartree energ DENC   =     -6080.28787116
  -exchange      EXHF   =         0.00000000
  -V(xc)+E(xc)   XCENC  =     -1392.35994860
  PAW double counting   =     22640.98123092   -20498.50096982
  entropy T*S    EENTRO =         0.00000000
  eigenvalues    EBANDS =      -758.73135185
  atomic energy  EATOM  =     19611.72375700
  Solvation  Ediel_sol  =         0.00000000
  ---------------------------------------------------
  free energy    TOTEN  =      -119.96436853 eV

  energy without entropy =     -119.96436853  energy(sigma->0) =     -119.96436853


--------------------------------------------------------------------------------------------------------




--------------------------------------- Iteration      1(   2)  ---------------------------------------


    POTLOK:  cpu time    0.5622: real time    0.5623
    SETDIJ:  cpu time    0.0554: real time    0.0554
     EDDAV:  cpu time   49.3477: real time   49.3473
 BZINTS: Fermi energy:    2.053695;  352.000000 electrons
         Band energy:-0.758731E+03;  BLOECHL correction:   -0.000000
       DOS:  cpu time    0.0648: real time    0.0648
    --------------------------------------------
      LOOP:  cpu time   50.0300: real time   50.0297

 eigenvalue-minimisations  :  8216
 total energy-change (2. order) : 0.6128903E-07  (-0.1189218E-06)
 number of electron     352.0000487 magnetization 
 augmentation part      -23.1228109 magnetization 

 Free energy of the ion-electron system (eV)
  ---------------------------------------------------
  alpha Z        PSCENC =       225.93236534
  Ewald energy   TEWEN  =    -13868.72158036
  -Hartree energ DENC   =     -6080.28777384
  -exchange      EXHF   =         0.00000000
  -V(xc)+E(xc)   XCENC  =     -1392.35944745
  PAW double counting   =     22640.55162880   -20498.07208200
  entropy T*S    EENTRO =         0.00000000
  eigenvalues    EBANDS =      -758.73123596
  atomic energy  EATOM  =     19611.72375700
  Solvation  Ediel_sol  =         0.00000000
  ---------------------------------------------------
  free energy    TOTEN  =      -119.96436847 eV

  energy without entropy =     -119.96436847  energy(sigma->0) =     -119.96436847


--------------------------------------------------------------------------------------------------------




 average (electrostatic) potential at core
  the test charge radii are     1.1249  1.4024  1.1875
  (the norm of the test charge is              1.0000)
       1 -75.1920       2 -75.0701       3 -75.1894       4 -75.0612       5 -75.0025
       6 -75.0720       7 -75.0608       8 -75.0030       9 -65.5340      10 -65.4766
      11 -65.5341      12 -65.5063      13 -65.5049      14 -65.4777      15 -65.5296
      16 -65.5288      17 -93.1995      18 -92.9985      19 -93.1025      20 -93.0874
      21 -93.0864      22 -92.9964      23 -93.0992      24 -93.1975      25 -93.3194
      26 -93.2329      27 -93.3362      28 -93.3208      29 -93.3247      30 -93.3337
      31 -93.2312      32 -93.3157      33 -93.2311      34 -93.3170      35 -93.3183
      36 -93.3346      37 -93.3360      38 -93.3214      39 -93.3250      40 -93.2348
      41 -93.0723      42 -93.1684      43 -93.0760      44 -93.0105      45 -93.0766
      46 -93.0724      47 -93.1745      48 -93.0116
 
 
 
 E-fermi :   2.0537     XC(G=0):  -7.8000     alpha+bet : -7.7654


 k-point     1 :       0.0000    0.0000    0.0000
  band No.  band energies     occupation 
      1     -10.8458      2.00000
      2     -10.7165      2.00000
      3     -10.6713      2.00000
      4     -10.5365      2.00000
      5     -10.4819      2.00000
      6     -10.2568      2.00000
      7     -10.2239      2.00000
      8     -10.0439      2.00000
      9      -9.8903      2.00000
     10      -9.8819      2.00000
     11      -9.8686      2.00000
     12      -9.8509      2.00000
     13      -9.8463      2.00000
     14      -9.8080      2.00000
     15      -9.8067      2.00000
     16      -9.7433      2.00000
     17      -9.7315      2.00000
     18      -9.7176      2.00000
     19      -9.7053      2.00000
     20      -9.7012      2.00000
     21      -9.6838      2.00000
     22      -9.6620      2.00000
     23      -9.6532      2.00000
     24      -9.6271      2.00000
     25      -9.6141      2.00000
     26      -9.6075      2.00000
     27      -9.5885      2.00000
     28      -9.5647      2.00000
     29      -9.5534      2.00000
     30      -9.5497      2.00000
     31      -9.5420      2.00000
     32      -9.5103      2.00000
     33      -8.2244      2.00000
     34      -8.1238      2.00000
     35      -8.1144      2.00000
     36      -7.8828      2.00000
     37      -7.8571      2.00000
     38      -7.6462      2.00000
     39      -7.6321      2.00000
     40      -7.6306      2.00000
     41      -1.8225      2.00000
     42      -1.7630      2.00000
     43      -1.7192      2.00000
     44      -1.7046      2.00000
     45      -1.6566      2.00000
     46      -1.5890      2.00000
     47      -1.5321      2.00000
     48      -1.4787      2.00000
     49      -1.4724      2.00000
     50      -1.4399      2.00000
     51      -1.4363      2.00000
     52      -1.3953      2.00000
     53      -1.3581      2.00000
     54      -1.3284      2.00000
     55      -1.3206      2.00000
     56      -1.2783      2.00000
     57      -1.2354      2.00000
     58      -1.2262      2.00000
     59      -1.1587      2.00000
     60      -1.1169      2.00000
     61      -1.0990      2.00000
     62      -1.0664      2.00000
     63      -1.0231      2.00000
     64      -1.0211      2.00000
     65      -1.0184      2.00000
     66      -1.0005      2.00000
     67      -0.9886      2.00000
     68      -0.9869      2.00000
     69      -0.9621      2.00000
     70      -0.9235      2.00000
     71      -0.9203      2.00000
     72      -0.9188      2.00000
     73      -0.8878      2.00000
     74      -0.8528      2.00000
     75      -0.8474      2.00000
     76      -0.8214      2.00000
     77      -0.8145      2.00000
     78      -0.8080      2.00000
     79      -0.7824      2.00000
     80      -0.7329      2.00000
     81      -0.7036      2.00000
     82      -0.7003      2.00000
     83      -0.6625      2.00000
     84      -0.6440      2.00000
     85      -0.6315      2.00000
     86      -0.6190      2.00000
     87      -0.5794      2.00000
     88      -0.5539      2.00000
     89      -0.5437      2.00000
     90      -0.5088      2.00000
     91      -0.4898      2.00000
     92      -0.4729      2.00000
     93      -0.4662      2.00000
     94      -0.4183      2.00000
     95      -0.4030      2.00000
     96      -0.3767      2.00000
     97      -0.3570      2.00000
     98      -0.3527      2.00000
     99      -0.3322      2.00000
    100      -0.3230      2.00000
    101      -0.2894      2.00000
    102      -0.2657      2.00000
    103      -0.2595      2.00000
    104      -0.2276      2.00000
    105      -0.2129      2.00000
    106      -0.2037      2.00000
    107      -0.1755      2.00000
    108      -0.1576      2.00000
    109      -0.1316      2.00000
    110      -0.1213      2.00000
    111      -0.0641      2.00000
    112      -0.0501      2.00000
    113       0.0754      2.00000
    114       0.1246      2.00000
    115       0.1633      2.00000
    116       0.1747      2.00000
    117       0.1829      2.00000
    118       0.2118      2.00000
    119       0.2345      2.00000
    120       0.2420      2.00000
    121       0.2535      2.00000
    122       0.2879      2.00000
    123       0.3509      2.00000
    124       0.3956      2.00000
    125       0.3962      2.00000
    126       0.4149      2.00000
    127       0.4785      2.00000
    128       0.5166      2.00000
    129       0.5254      2.00000
    130       0.5268      2.00000
    131       0.5416      2.00000
    132       0.5491      2.00000
    133       0.5822      2.00000
    134       0.6368      2.00000
    135       0.6910      2.00000
    136       0.7060      2.00000
    137       0.7092      2.00000
    138       0.7157      2.00000
    139       0.7253      2.00000
    140       0.7766      2.00000
    141       0.7856      2.00000
    142       0.7904      2.00000
    143       0.8200      2.00000
    144       0.8359      2.00000
    145       0.8475      2.00000
    146       0.8899      2.00000
    147       0.9372      2.00000
    148       0.9604      2.00000
    149       0.9870      2.00000
    150       1.0272      2.00000
    151       1.0635      2.00000
    152       1.0914      2.00000
    153       1.1006      2.00000
    154       1.1478      2.00000
    155       1.1616      2.00000
    156       1.1716      2.00000
    157       1.1940      2.00000
    158       1.2020      2.00000
    159       1.2374      2.00000
    160       1.3051      2.00000
    161       1.3567      2.00000
    162       1.3994      2.00000
    163       1.4537      2.00000
    164       1.4820      2.00000
    165       1.5304      2.00000
    166       1.5436      2.00000
    167       1.5715      2.00000
    168       1.5978      2.00000
    169       1.7536      2.00000
    170       1.7598      2.00000
    171       1.8712      2.00000
    172       1.8873      2.00000
    173       1.9990      2.00000
    174       2.0085      2.00000
    175       2.0243      2.00000
    176       2.0537      2.00000
    177       3.8357      0.00000
    178       3.9990      0.00000
    179       4.0032      0.00000
    180       4.1184      0.00000
    181       4.1574      0.00000
    182       4.3389      0.00000
    183       4.3418      0.00000
    184       4.3891      0.00000
    185       4.4202      0.00000
    186       4.4364      0.00000
    187       4.5159      0.00000
    188       4.5275      0.00000
    189       4.5534      0.00000
    190       4.5617      0.00000
    191       4.5987      0.00000
    192       4.6049      0.00000
    193       4.6419      0.00000
    194       4.6992      0.00000
    195       4.7295      0.00000
    196       4.7324      0.00000
    197       4.7959      0.00000
    198       4.8249      0.00000
    199       4.8344      0.00000
    200       4.9502      0.00000
    201       5.0710      0.00000
    202       5.2682      0.00000
    203       5.5747      0.00000
    204       5.7202      0.00000
    205       5.9105      0.00000
    206       5.9301      0.00000
    207       5.9473      0.00000
    208       5.9840      0.00000
    209       7.1541      0.00000
    210       7.2600      0.00000
    211       7.2699      0.00000

 k-point     2 :       0.2500   -0.0000   -0.0000
  band No.  band energies     occupation 
      1     -10.8316      2.00000
      2     -10.7467      2.00000
      3     -10.6470      2.00000
      4     -10.5661      2.00000
      5     -10.4465      2.00000
      6     -10.3187      2.00000
      7     -10.1621      2.00000
      8     -10.0599      2.00000
      9      -9.8913      2.00000
     10      -9.8839      2.00000
     11      -9.8611      2.00000
     12      -9.8530      2.00000
     13      -9.8499      2.00000
     14      -9.8252      2.00000
     15      -9.7861      2.00000
     16      -9.7376      2.00000
     17      -9.7355      2.00000
     18      -9.7220      2.00000
     19      -9.6996      2.00000
     20      -9.6935      2.00000
     21      -9.6839      2.00000
     22      -9.6770      2.00000
     23      -9.6400      2.00000
     24      -9.6289      2.00000
     25      -9.6217      2.00000
     26      -9.6082      2.00000
     27      -9.5807      2.00000
     28      -9.5605      2.00000
     29      -9.5533      2.00000
     30      -9.5508      2.00000
     31      -9.5440      2.00000
     32      -9.5170      2.00000
     33      -8.2182      2.00000
     34      -8.1653      2.00000
     35      -8.0654      2.00000
     36      -7.9407      2.00000
     37      -7.8015      2.00000
     38      -7.6771      2.00000
     39      -7.6343      2.00000
     40      -7.6099      2.00000
     41      -1.8072      2.00000
     42      -1.7494      2.00000
     43      -1.7332      2.00000
     44      -1.6838      2.00000
     45      -1.6787      2.00000
     46      -1.5944      2.00000
     47      -1.5437      2.00000
     48      -1.5008      2.00000
     49      -1.4619      2.00000
     50      -1.4538      2.00000
     51      -1.4381      2.00000
     52      -1.3990      2.00000
     53      -1.3404      2.00000
     54      -1.3185      2.00000
     55      -1.2877      2.00000
     56      -1.2783      2.00000
     57      -1.2714      2.00000
     58      -1.2032      2.00000
     59      -1.1553      2.00000
     60      -1.1439      2.00000
     61      -1.1011      2.00000
     62      -1.0937      2.00000
     63      -1.0838      2.00000
     64      -1.0324      2.00000
     65      -1.0283      2.00000
     66      -1.0044      2.00000
     67      -0.9940      2.00000
     68      -0.9531      2.00000
     69      -0.9474      2.00000
     70      -0.9290      2.00000
     71      -0.9124      2.00000
     72      -0.9080      2.00000
     73      -0.8932      2.00000
     74      -0.8595      2.00000
     75      -0.8321      2.00000
     76      -0.8177      2.00000
     77      -0.8044      2.00000
     78      -0.7818      2.00000
     79      -0.7606      2.00000
     80      -0.7474      2.00000
     81      -0.7155      2.00000
     82      -0.6749      2.00000
     83      -0.6521      2.00000
     84      -0.6340      2.00000
     85      -0.6322      2.00000
     86      -0.6090      2.00000
     87      -0.5873      2.00000
     88      -0.5538      2.00000
     89      -0.5314      2.00000
     90      -0.4891      2.00000
     91      -0.4856      2.00000
     92      -0.4748      2.00000
     93      -0.4521      2.00000
     94      -0.4151      2.00000
     95      -0.3907      2.00000
     96      -0.3790      2.00000
     97      -0.3720      2.00000
     98      -0.3463      2.00000
     99      -0.3265      2.00000
    100      -0.3235      2.00000
    101      -0.2910      2.00000
    102      -0.2775      2.00000
    103      -0.2733      2.00000
    104      -0.2274      2.00000
    105      -0.2230      2.00000
    106      -0.2098      2.00000
    107      -0.1878      2.00000
    108      -0.1803      2.00000
    109      -0.1548      2.00000
    110      -0.1470      2.00000
    111      -0.1141      2.00000
    112      -0.0808      2.00000
    113       0.0702      2.00000
    114       0.1429      2.00000
    115       0.1681      2.00000
    116       0.1783      2.00000
    117       0.2308      2.00000
    118       0.2449      2.00000
    119       0.2632      2.00000
    120       0.2766      2.00000
    121       0.3001      2.00000
    122       0.3456      2.00000
    123       0.3596      2.00000
    124       0.4003      2.00000
    125       0.4095      2.00000
    126       0.4156      2.00000
    127       0.4382      2.00000
    128       0.4663      2.00000
    129       0.4931      2.00000
    130       0.5165      2.00000
    131       0.5451      2.00000
    132       0.5607      2.00000
    133       0.6164      2.00000
    134       0.6478      2.00000
    135       0.6581      2.00000
    136       0.6685      2.00000
    137       0.7204      2.00000
    138       0.7280      2.00000
    139       0.7332      2.00000
    140       0.7559      2.00000
    141       0.7749      2.00000
    142       0.7919      2.00000
    143       0.8073      2.00000
    144       0.8426      2.00000
    145       0.8486      2.00000
    146       0.9092      2.00000
    147       0.9499      2.00000
    148       0.9557      2.00000
    149       0.9903      2.00000
    150       1.0205      2.00000
    151       1.0332      2.00000
    152       1.0914      2.00000
    153       1.1153      2.00000
    154       1.1487      2.00000
    155       1.1669      2.00000
    156       1.1772      2.00000
    157       1.1951      2.00000
    158       1.2218      2.00000
    159       1.2439      2.00000
    160       1.2704      2.00000
    161       1.4115      2.00000
    162       1.4460      2.00000
    163       1.4499      2.00000
    164       1.4597      2.00000
    165       1.5418      2.00000
    166       1.5681      2.00000
    167       1.5962      2.00000
    168       1.6077      2.00000
    169       1.7317      2.00000
    170       1.7425      2.00000
    171       1.8041      2.00000
    172       1.8136      2.00000
    173       1.9851      2.00000
    174       2.0006      2.00000
    175       2.0160      2.00000
    176       2.0430      2.00000
    177       3.8650      0.00000
    178       3.9643      0.00000
    179       4.0640      0.00000
    180       4.1209      0.00000
    181       4.1941      0.00000
    182       4.3117      0.00000
    183       4.3633      0.00000
    184       4.4089      0.00000
    185       4.4171      0.00000
    186       4.4489      0.00000
    187       4.5058      0.00000
    188       4.5099      0.00000
    189       4.5164      0.00000
    190       4.5635      0.00000
    191       4.5686      0.00000
    192       4.6349      0.00000
    193       4.6775      0.00000
    194       4.6974      0.00000
    195       4.7316      0.00000
    196       4.7491      0.00000
    197       4.7533      0.00000
    198       4.7876      0.00000
    199       4.8279      0.00000
    200       4.9191      0.00000
    201       5.1847      0.00000
    202       5.3490      0.00000
    203       5.6129      0.00000
    204       5.7076      0.00000
    205       5.8252      0.00000
    206       5.8803      0.00000
    207       5.9129      0.00000
    208       5.9302      0.00000
    209       7.1878      0.00000
    210       7.3744      0.00000
    211       7.4043      0.00000

 k-point     3 :      -0.0000    0.0000   -0.2500
  band No.  band energies     occupation 
      1     -10.8310      2.00000
      2     -10.7223      2.00000
      3     -10.6916      2.00000
      4     -10.5337      2.00000
      5     -10.4787      2.00000
      6     -10.2554      2.00000
      7     -10.2129      2.00000
      8     -10.0545      2.00000
      9      -9.8949      2.00000
     10      -9.8903      2.00000
     11      -9.8741      2.00000
     12      -9.8519      2.00000
     13      -9.8484      2.00000
     14      -9.7986      2.00000
     15      -9.7874      2.00000
     16      -9.7458      2.00000
     17      -9.7317      2.00000
     18      -9.7176      2.00000
     19      -9.6979      2.00000
     20      -9.6944      2.00000
     21      -9.6897      2.00000
     22      -9.6598      2.00000
     23      -9.6500      2.00000
     24      -9.6331      2.00000
     25      -9.6128      2.00000
     26      -9.6086      2.00000
     27      -9.5839      2.00000
     28      -9.5685      2.00000
     29      -9.5565      2.00000
     30      -9.5512      2.00000
     31      -9.5399      2.00000
     32      -9.5160      2.00000
     33      -8.2296      2.00000
     34      -8.1211      2.00000
     35      -8.1135      2.00000
     36      -7.8816      2.00000
     37      -7.8576      2.00000
     38      -7.6785      2.00000
     39      -7.6296      2.00000
     40      -7.6009      2.00000
     41      -1.8009      2.00000
     42      -1.7479      2.00000
     43      -1.7184      2.00000
     44      -1.6904      2.00000
     45      -1.6502      2.00000
     46      -1.6106      2.00000
     47      -1.5619      2.00000
     48      -1.5468      2.00000
     49      -1.4945      2.00000
     50      -1.4517      2.00000
     51      -1.3964      2.00000
     52      -1.3851      2.00000
     53      -1.3510      2.00000
     54      -1.3231      2.00000
     55      -1.3013      2.00000
     56      -1.2723      2.00000
     57      -1.2249      2.00000
     58      -1.2026      2.00000
     59      -1.1793      2.00000
     60      -1.1319      2.00000
     61      -1.1170      2.00000
     62      -1.0848      2.00000
     63      -1.0516      2.00000
     64      -1.0361      2.00000
     65      -1.0202      2.00000
     66      -1.0006      2.00000
     67      -0.9792      2.00000
     68      -0.9666      2.00000
     69      -0.9475      2.00000
     70      -0.9371      2.00000
     71      -0.9173      2.00000
     72      -0.9022      2.00000
     73      -0.8865      2.00000
     74      -0.8737      2.00000
     75      -0.8402      2.00000
     76      -0.8206      2.00000
     77      -0.8127      2.00000
     78      -0.8081      2.00000
     79      -0.7646      2.00000
     80      -0.7551      2.00000
     81      -0.7066      2.00000
     82      -0.6812      2.00000
     83      -0.6608      2.00000
     84      -0.6489      2.00000
     85      -0.6318      2.00000
     86      -0.5928      2.00000
     87      -0.5825      2.00000
     88      -0.5562      2.00000
     89      -0.5122      2.00000
     90      -0.4993      2.00000
     91      -0.4812      2.00000
     92      -0.4730      2.00000
     93      -0.4438      2.00000
     94      -0.4194      2.00000
     95      -0.4004      2.00000
     96      -0.3902      2.00000
     97      -0.3748      2.00000
     98      -0.3680      2.00000
     99      -0.3431      2.00000
    100      -0.3170      2.00000
    101      -0.3045      2.00000
    102      -0.2833      2.00000
    103      -0.2272      2.00000
    104      -0.2246      2.00000
    105      -0.2097      2.00000
    106      -0.1803      2.00000
    107      -0.1617      2.00000
    108      -0.1593      2.00000
    109      -0.1474      2.00000
    110      -0.1359      2.00000
    111      -0.1020      2.00000
    112      -0.0524      2.00000
    113       0.0808      2.00000
    114       0.1092      2.00000
    115       0.1309      2.00000
    116       0.1472      2.00000
    117       0.1771      2.00000
    118       0.2275      2.00000
    119       0.2466      2.00000
    120       0.2639      2.00000
    121       0.2855      2.00000
    122       0.3352      2.00000
    123       0.3500      2.00000
    124       0.3560      2.00000
    125       0.4164      2.00000
    126       0.4456      2.00000
    127       0.4647      2.00000
    128       0.5103      2.00000
    129       0.5252      2.00000
    130       0.5533      2.00000
    131       0.5663      2.00000
    132       0.5915      2.00000
    133       0.6005      2.00000
    134       0.6253      2.00000
    135       0.6483      2.00000
    136       0.6856      2.00000
    137       0.6989      2.00000
    138       0.7178      2.00000
    139       0.7536      2.00000
    140       0.7601      2.00000
    141       0.7751      2.00000
    142       0.8122      2.00000
    143       0.8184      2.00000
    144       0.8312      2.00000
    145       0.8638      2.00000
    146       0.8978      2.00000
    147       0.9714      2.00000
    148       0.9864      2.00000
    149       0.9912      2.00000
    150       1.0106      2.00000
    151       1.0192      2.00000
    152       1.0780      2.00000
    153       1.1243      2.00000
    154       1.1481      2.00000
    155       1.1522      2.00000
    156       1.1543      2.00000
    157       1.1865      2.00000
    158       1.2093      2.00000
    159       1.2413      2.00000
    160       1.2939      2.00000
    161       1.3531      2.00000
    162       1.4074      2.00000
    163       1.4643      2.00000
    164       1.4776      2.00000
    165       1.5235      2.00000
    166       1.5485      2.00000
    167       1.5971      2.00000
[...]
    143       0.8506      2.00000
    144       0.8542      2.00000
    145       0.9182      2.00000
    146       0.9281      2.00000
    147       1.0128      2.00000
    148       1.0194      2.00000
    149       1.0375      2.00000
    150       1.0447      2.00000
    151       1.0723      2.00000
    152       1.0769      2.00000
    153       1.0954      2.00000
    154       1.0992      2.00000
    155       1.1612      2.00000
    156       1.1642      2.00000
    157       1.2063      2.00000
    158       1.2074      2.00000
    159       1.2620      2.00000
    160       1.2644      2.00000
    161       1.4406      2.00000
    162       1.4428      2.00000
    163       1.5727      2.00000
    164       1.5765      2.00000
    165       1.5823      2.00000
    166       1.5866      2.00000
    167       1.6746      2.00000
    168       1.6778      2.00000
    169       1.7467      2.00000
    170       1.7555      2.00000
    171       1.8280      2.00000
    172       1.8326      2.00000
    173       1.8652      2.00000
    174       1.8693      2.00000
    175       1.9815      2.00000
    176       1.9843      2.00000
    177       3.8034      0.00000
    178       3.8065      0.00000
    179       3.9880      0.00000
    180       3.9910      0.00000
    181       4.1011      0.00000
    182       4.1043      0.00000
    183       4.2526      0.00000
    184       4.2554      0.00000
    185       4.3196      0.00000
    186       4.3244      0.00000
    187       4.4235      0.00000
    188       4.4272      0.00000
    189       4.5962      0.00000
    190       4.6025      0.00000
    191       4.6737      0.00000
    192       4.6816      0.00000
    193       4.7683      0.00000
    194       4.7724      0.00000
    195       4.8176      0.00000
    196       4.8239      0.00000
    197       4.8830      0.00000
    198       4.8873      0.00000
    199       5.0113      0.00000
    200       5.0147      0.00000
    201       5.5499      0.00000
    202       5.5522      0.00000
    203       5.5881      0.00000
    204       5.5942      0.00000
    205       5.6240      0.00000
    206       5.6522      0.00000
    207       5.7846      0.00000
    208       5.7891      0.00000
    209       7.3222      0.00000
    210       7.3266      0.00000
    211       7.4940      0.00000

 k-point    36 :       0.5000    0.5000    0.5000
  band No.  band energies     occupation 
      1     -10.7715      2.00000
      2     -10.7693      2.00000
      3     -10.6424      2.00000
      4     -10.6422      2.00000
      5     -10.3855      2.00000
      6     -10.3839      2.00000
      7     -10.1202      2.00000
      8     -10.1153      2.00000
      9      -9.9074      2.00000
     10      -9.9059      2.00000
     11      -9.8201      2.00000
     12      -9.8188      2.00000
     13      -9.7921      2.00000
     14      -9.7920      2.00000
     15      -9.7512      2.00000
     16      -9.7506      2.00000
     17      -9.7290      2.00000
     18      -9.7283      2.00000
     19      -9.7068      2.00000
     20      -9.7016      2.00000
     21      -9.6961      2.00000
     22      -9.6929      2.00000
     23      -9.6421      2.00000
     24      -9.6322      2.00000
     25      -9.6179      2.00000
     26      -9.6131      2.00000
     27      -9.5880      2.00000
     28      -9.5823      2.00000
     29      -9.5553      2.00000
     30      -9.5488      2.00000
     31      -9.5384      2.00000
     32      -9.5371      2.00000
     33      -8.2012      2.00000
     34      -8.1996      2.00000
     35      -8.0073      2.00000
     36      -8.0038      2.00000
     37      -7.7670      2.00000
     38      -7.7631      2.00000
     39      -7.5885      2.00000
     40      -7.5857      2.00000
     41      -1.7840      2.00000
     42      -1.7815      2.00000
     43      -1.6782      2.00000
     44      -1.6768      2.00000
     45      -1.6346      2.00000
     46      -1.6330      2.00000
     47      -1.5420      2.00000
     48      -1.5392      2.00000
     49      -1.4919      2.00000
     50      -1.4916      2.00000
     51      -1.4593      2.00000
     52      -1.4587      2.00000
     53      -1.3801      2.00000
     54      -1.3782      2.00000
     55      -1.2902      2.00000
     56      -1.2879      2.00000
     57      -1.2720      2.00000
     58      -1.2702      2.00000
     59      -1.1445      2.00000
     60      -1.1368      2.00000
     61      -1.0486      2.00000
     62      -1.0468      2.00000
     63      -1.0149      2.00000
     64      -1.0095      2.00000
     65      -0.9984      2.00000
     66      -0.9874      2.00000
     67      -0.9728      2.00000
     68      -0.9654      2.00000
     69      -0.9244      2.00000
     70      -0.9093      2.00000
     71      -0.8906      2.00000
     72      -0.8817      2.00000
     73      -0.8724      2.00000
     74      -0.8715      2.00000
     75      -0.8464      2.00000
     76      -0.8452      2.00000
     77      -0.8317      2.00000
     78      -0.8248      2.00000
     79      -0.7468      2.00000
     80      -0.7458      2.00000
     81      -0.6982      2.00000
     82      -0.6931      2.00000
     83      -0.6264      2.00000
     84      -0.6229      2.00000
     85      -0.5937      2.00000
     86      -0.5888      2.00000
     87      -0.5520      2.00000
     88      -0.5510      2.00000
     89      -0.5232      2.00000
     90      -0.5178      2.00000
     91      -0.4821      2.00000
     92      -0.4788      2.00000
     93      -0.4098      2.00000
     94      -0.4040      2.00000
     95      -0.3850      2.00000
     96      -0.3803      2.00000
     97      -0.3636      2.00000
     98      -0.3573      2.00000
     99      -0.3196      2.00000
    100      -0.3121      2.00000
    101      -0.3082      2.00000
    102      -0.3029      2.00000
    103      -0.2618      2.00000
    104      -0.2537      2.00000
    105      -0.2119      2.00000
    106      -0.2080      2.00000
    107      -0.1908      2.00000
    108      -0.1839      2.00000
    109      -0.1488      2.00000
    110      -0.1453      2.00000
    111      -0.0886      2.00000
    112      -0.0825      2.00000
    113       0.0326      2.00000
    114       0.0367      2.00000
    115       0.1441      2.00000
    116       0.1472      2.00000
    117       0.2293      2.00000
    118       0.2374      2.00000
    119       0.2821      2.00000
    120       0.2864      2.00000
    121       0.3652      2.00000
    122       0.3693      2.00000
    123       0.3701      2.00000
    124       0.3733      2.00000
    125       0.4199      2.00000
    126       0.4219      2.00000
    127       0.4549      2.00000
    128       0.4576      2.00000
    129       0.5095      2.00000
    130       0.5171      2.00000
    131       0.5500      2.00000
    132       0.5550      2.00000
    133       0.5708      2.00000
    134       0.5780      2.00000
    135       0.6080      2.00000
    136       0.6089      2.00000
    137       0.6637      2.00000
    138       0.6725      2.00000
    139       0.6958      2.00000
    140       0.7055      2.00000
    141       0.7364      2.00000
    142       0.7438      2.00000
    143       0.8773      2.00000
    144       0.8822      2.00000
    145       0.9035      2.00000
    146       0.9143      2.00000
    147       1.0307      2.00000
    148       1.0359      2.00000
    149       1.0494      2.00000
    150       1.0573      2.00000
    151       1.0731      2.00000
    152       1.0752      2.00000
    153       1.0891      2.00000
    154       1.0910      2.00000
    155       1.1728      2.00000
    156       1.1746      2.00000
    157       1.2003      2.00000
    158       1.2024      2.00000
    159       1.2649      2.00000
    160       1.2683      2.00000
    161       1.4721      2.00000
    162       1.4743      2.00000
    163       1.5718      2.00000
    164       1.5764      2.00000
    165       1.5820      2.00000
    166       1.5849      2.00000
    167       1.6925      2.00000
    168       1.6932      2.00000
    169       1.7668      2.00000
    170       1.7750      2.00000
    171       1.8292      2.00000
    172       1.8331      2.00000
    173       1.8648      2.00000
    174       1.8659      2.00000
    175       2.0181      2.00000
    176       2.0201      2.00000
    177       3.7061      0.00000
    178       3.7071      0.00000
    179       3.9113      0.00000
    180       3.9142      0.00000
    181       4.0419      0.00000
    182       4.0448      0.00000
    183       4.2288      0.00000
    184       4.2294      0.00000
    185       4.3106      0.00000
    186       4.3179      0.00000
    187       4.4218      0.00000
    188       4.4239      0.00000
    189       4.6107      0.00000
    190       4.6170      0.00000
    191       4.7001      0.00000
    192       4.7061      0.00000
    193       4.8154      0.00000
    194       4.8214      0.00000
    195       4.8489      0.00000
    196       4.8495      0.00000
    197       4.9504      0.00000
    198       4.9512      0.00000
    199       5.0279      0.00000
    200       5.0316      0.00000
    201       5.5349      0.00000
    202       5.5358      0.00000
    203       5.5646      0.00000
    204       5.5668      0.00000
    205       5.5910      0.00000
    206       5.6238      0.00000
    207       5.8003      0.00000
    208       5.8005      0.00000
    209       7.2419      0.00000
    210       7.2461      0.00000
    211       7.5041      0.00000


--------------------------------------------------------------------------------------------------------


 soft charge-density along one line, spin component           1
         0         1         2         3         4         5         6         7         8         9
 total charge-density along one line
 
 pseudopotential strength for first ion, spin component:           1
 -6.521   0.000  -0.000   0.003   0.001  -6.653   0.000  -0.000
  0.000  -6.528   0.002   0.000  -0.003   0.000  -6.660   0.002
 -0.000   0.002  -6.521  -0.001  -0.004  -0.000   0.002  -6.653
  0.003   0.000  -0.001  -6.521   0.001   0.003   0.000  -0.001
  0.001  -0.003  -0.004   0.001  -6.517   0.001  -0.003  -0.004
 -6.653   0.000  -0.000   0.003   0.001  -6.754   0.000  -0.000
  0.000  -6.660   0.002   0.000  -0.003   0.000  -6.761   0.002
 -0.000   0.002  -6.653  -0.001  -0.004  -0.000   0.002  -6.754
  0.003   0.000  -0.001  -6.653   0.001   0.003   0.000  -0.001
  0.001  -0.003  -0.004   0.001  -6.649   0.001  -0.003  -0.003
  0.000   0.000  -0.001   0.000   0.001   0.000   0.000  -0.001
  0.000   0.001  -0.001   0.000   0.002   0.000   0.001  -0.001
  0.000   0.006   0.004   0.000   0.007   0.000   0.006   0.004
  0.000  -0.006   0.008  -0.000  -0.000   0.000  -0.006   0.008
 -0.005   0.000  -0.000   0.005  -0.000  -0.005   0.000  -0.000
  0.000   0.007   0.005   0.000   0.008   0.000   0.007   0.004
  0.000  -0.007   0.009  -0.000  -0.000   0.000  -0.007   0.009
 -0.007   0.000  -0.000   0.007  -0.000  -0.007   0.000  -0.000
 total augmentation occupancy for first ion, spin component:           1
  2.402  -0.016  -0.049  -0.018   0.165  -0.408   0.013   0.047   0.009  -0.146  -0.037   0.007   0.020  -0.002   0.075  -0.001
 -0.016   2.332   0.133  -0.016  -0.230   0.013  -0.327  -0.128   0.013   0.222  -0.203   0.034  -0.053   0.053   0.000   0.006
 -0.049   0.133   3.778  -0.118  -0.342   0.047  -0.128  -1.648   0.103   0.340   0.211  -0.031   0.087   0.235  -0.020  -0.004
 -0.018  -0.016  -0.118   2.402   0.128   0.009   0.013   0.103  -0.408  -0.117  -0.041   0.008   0.002  -0.020  -0.075  -0.000
  0.165  -0.230  -0.342   0.128   4.173  -0.146   0.222   0.340  -0.117  -2.041  -0.367   0.053   0.221  -0.035  -0.013  -0.009
 -0.408   0.013   0.047   0.009  -0.146   0.397  -0.010  -0.045  -0.001   0.130   0.033  -0.007  -0.019   0.002  -0.060   0.001
  0.013  -0.327  -0.128   0.013   0.222  -0.010   0.305   0.123  -0.010  -0.214   0.187  -0.041   0.039  -0.039  -0.000  -0.003
  0.047  -0.128  -1.648   0.103   0.340  -0.045   0.123   1.514  -0.089  -0.337  -0.189   0.035  -0.081  -0.213   0.017   0.006
  0.009   0.013   0.103  -0.408  -0.117  -0.001  -0.010  -0.089   0.397   0.107   0.036  -0.008  -0.002   0.018   0.060   0.000
 -0.146   0.222   0.340  -0.117  -2.041   0.130  -0.214  -0.337   0.107   1.903   0.327  -0.060  -0.199   0.030   0.011   0.012
 -0.037  -0.203   0.211  -0.041  -0.367   0.033   0.187  -0.189   0.036   0.327   1.482  -0.313   0.047  -0.047   0.000  -0.004
  0.007   0.034  -0.031   0.008   0.053  -0.007  -0.041   0.035  -0.008  -0.060  -0.313   0.071  -0.011   0.011  -0.000   0.001
  0.020  -0.053   0.087   0.002   0.221  -0.019   0.039  -0.081  -0.002  -0.199   0.047  -0.011   0.080   0.014   0.002  -0.005
 -0.002   0.053   0.235  -0.020  -0.035   0.002  -0.039  -0.213   0.018   0.030  -0.047   0.011   0.014   0.080   0.002  -0.001
  0.075   0.000  -0.020  -0.075  -0.013  -0.060  -0.000   0.017   0.060   0.011   0.000  -0.000   0.002   0.002   0.118  -0.000
 -0.001   0.006  -0.004  -0.000  -0.009   0.001  -0.003   0.006   0.000   0.012  -0.004   0.001  -0.005  -0.001  -0.000   0.000
  0.000  -0.006  -0.010   0.001   0.001  -0.000   0.003   0.014  -0.001  -0.001   0.004  -0.001  -0.001  -0.005  -0.000   0.000
 -0.006  -0.000   0.001   0.006   0.001   0.004   0.000  -0.001  -0.004  -0.001  -0.000   0.000  -0.000  -0.000  -0.008   0.000


------------------------ aborting loop because EDIFF is reached ----------------------------------------


 


 total charge     
 
# of ion       s       p       d       tot
------------------------------------------
    1        0.252   0.157   9.313   9.722
    2        0.241   0.151   9.320   9.712
    3        0.255   0.160   9.311   9.726
    4        0.241   0.151   9.320   9.712
    5        0.238   0.147   9.323   9.708
    6        0.242   0.151   9.319   9.712
    7        0.241   0.151   9.320   9.712
    8        0.238   0.147   9.323   9.708
    9        1.834   1.401   0.138   3.373
   10        1.833   1.400   0.135   3.368
   11        1.834   1.401   0.138   3.373
   12        1.835   1.398   0.139   3.371
   13        1.835   1.397   0.139   3.370
   14        1.833   1.400   0.135   3.368
   15        1.834   1.400   0.139   3.373
   16        1.834   1.400   0.139   3.373
   17        1.517   2.745   0.013   4.275
   18        1.513   2.747   0.016   4.276
   19        1.514   2.743   0.015   4.272
   20        1.516   2.743   0.015   4.274
   21        1.516   2.743   0.015   4.274
   22        1.513   2.747   0.016   4.276
   23        1.514   2.743   0.015   4.272
   24        1.517   2.745   0.013   4.275
   25        1.518   2.742   0.011   4.271
   26        1.514   2.742   0.017   4.273
   27        1.518   2.742   0.012   4.272
   28        1.518   2.742   0.012   4.273
   29        1.518   2.742   0.011   4.271
   30        1.518   2.742   0.012   4.272
   31        1.514   2.742   0.017   4.274
   32        1.518   2.743   0.012   4.273
   33        1.514   2.742   0.017   4.273
   34        1.518   2.742   0.012   4.273
   35        1.518   2.742   0.011   4.271
   36        1.518   2.742   0.012   4.272
   37        1.518   2.742   0.012   4.272
   38        1.518   2.742   0.013   4.273
   39        1.518   2.742   0.011   4.271
   40        1.514   2.742   0.017   4.274
   41        1.514   2.744   0.015   4.272
   42        1.518   2.746   0.012   4.276
   43        1.515   2.744   0.015   4.274
   44        1.513   2.747   0.016   4.276
   45        1.514   2.743   0.015   4.272
   46        1.515   2.744   0.015   4.274
   47        1.517   2.746   0.012   4.276
   48        1.513   2.747   0.016   4.276
--------------------------------------------------
tot         65.135 100.208  76.089 241.433
 


--------------------------------------------------------------------------------------------------------



  FREE ENERGIE OF THE ION-ELECTRON SYSTEM (eV)
  ---------------------------------------------------
  free  energy   TOTEN  =      -119.96436847 eV

  energy  without entropy=     -119.96436847  energy(sigma->0) =     -119.96436847
 


--------------------------------------------------------------------------------------------------------




--------------------------------------------------------------------------------------------------------


 writing wavefunctions
     LOOP+:  cpu time  113.7370: real time  113.8444
    4ORBIT:  cpu time    0.0000: real time    0.0000
 


 total charge     
 
# of ion       s       p       d       tot
------------------------------------------
    1        0.252   0.157   9.313   9.722
    2        0.241   0.151   9.320   9.712
    3        0.255   0.160   9.311   9.726
    4        0.241   0.151   9.320   9.712
    5        0.238   0.147   9.323   9.708
    6        0.242   0.151   9.319   9.712
    7        0.241   0.151   9.320   9.712
    8        0.238   0.147   9.323   9.708
    9        1.834   1.401   0.138   3.373
   10        1.833   1.400   0.135   3.368
   11        1.834   1.401   0.138   3.373
   12        1.835   1.398   0.139   3.371
   13        1.835   1.397   0.139   3.370
   14        1.833   1.400   0.135   3.368
   15        1.834   1.400   0.139   3.373
   16        1.834   1.400   0.139   3.373
   17        1.517   2.745   0.013   4.275
   18        1.513   2.747   0.016   4.276
   19        1.514   2.743   0.015   4.272
   20        1.516   2.743   0.015   4.274
   21        1.516   2.743   0.015   4.274
   22        1.513   2.747   0.016   4.276
   23        1.514   2.743   0.015   4.272
   24        1.517   2.745   0.013   4.275
   25        1.518   2.742   0.011   4.271
   26        1.514   2.742   0.017   4.273
   27        1.518   2.742   0.012   4.272
   28        1.518   2.742   0.012   4.273
   29        1.518   2.742   0.011   4.271
   30        1.518   2.742   0.012   4.272
   31        1.514   2.742   0.017   4.274
   32        1.518   2.743   0.012   4.273
   33        1.514   2.742   0.017   4.273
   34        1.518   2.742   0.012   4.273
   35        1.518   2.742   0.011   4.271
   36        1.518   2.742   0.012   4.272
   37        1.518   2.742   0.012   4.272
   38        1.518   2.742   0.013   4.273
   39        1.518   2.742   0.011   4.271
   40        1.514   2.742   0.017   4.274
   41        1.514   2.744   0.015   4.272
   42        1.518   2.746   0.012   4.276
   43        1.515   2.744   0.015   4.274
   44        1.513   2.747   0.016   4.276
   45        1.514   2.743   0.015   4.272
   46        1.515   2.744   0.015   4.274
   47        1.517   2.746   0.012   4.276
   48        1.513   2.747   0.016   4.276
--------------------------------------------------
tot         65.135 100.208  76.089 241.433
 
 BZINTS: Fermi energy:    2.053695;  352.000000 electrons
         Band energy:-0.758731E+03;  BLOECHL correction:   -0.000000

 total amount of memory used by VASP MPI-rank0  2782079. kBytes
=======================================================================

   base      :      30000. kBytes
   nonl-proj :     303764. kBytes
   fftplans  :      34720. kBytes
   grid      :      70000. kBytes
   one-center:        746. kBytes
   wavefun   :    2342849. kBytes
 
  
  
 General timing and accounting informations for this job:
 ========================================================
  
                  Total CPU time used (sec):      154.153
                            User time (sec):      149.001
                          System time (sec):        5.151
                         Elapsed time (sec):      155.797
  
                   Maximum memory used (kb):     4347788.
                   Average memory used (kb):           0.
  
                          Minor page faults:       423483
                          Major page faults:           10
                 Voluntary context switches:         2447
