 vasp.6.1.0 28Jan20 (build Jan 13 2021 21:44:47) complex                        
  
 executed on             LinuxIFC date 2021.09.12  19:37:21
 running on    9 total cores
 distrk:  each k-point on    1 cores,    9 groups
 distr:  one band on NCORE=   1 cores,    1 groups


--------------------------------------------------------------------------------------------------------


 INCAR:
 POTCAR:    PAW_PBE Ag 02Apr2005                  
 POTCAR:    PAW_PBE Bi 08Apr2002                  
 POTCAR:    PAW_PBE I 08Apr2002                   
 -----------------------------------------------------------------------------
|                                                                             |
|           W    W    AA    RRRRR   N    N  II  N    N   GGGG   !!!           |
|           W    W   A  A   R    R  NN   N  II  NN   N  G    G  !!!           |
|           W    W  A    A  R    R  N N  N  II  N N  N  G       !!!           |
|           W WW W  AAAAAA  RRRRR   N  N N  II  N  N N  G  GGG   !            |
|           WW  WW  A    A  R   R   N   NN  II  N   NN  G    G                |
|           W    W  A    A  R    R  N    N  II  N    N   GGGG   !!!           |
|                                                                             |
|     For optimal performance we recommend to set                             |
|       NCORE = 4 - approx SQRT(number of cores).                             |
|     NCORE specifies how many cores store one orbital (NPAR=cpu/NCORE).      |
|     This setting can greatly improve the performance of VASP for DFT.       |
|     The default, NCORE=1 might be grossly inefficient on modern             |
|     multi-core architectures or massively parallel machines. Do your        |
|     own testing!!!!                                                         |
|     Unfortunately you need to use the default for GW and RPA                |
|     calculations (for HF NCORE is supported but not extensively tested      |
|     yet).                                                                   |
|                                                                             |
 -----------------------------------------------------------------------------

 POTCAR:    PAW_PBE Ag 02Apr2005                  
   VRHFIN =Ag : s1 d10                                                                              
   LEXCH  = PE                                                                                      
   EATOM  =  1037.2675 eV,   76.2370 Ry                                                             
                                                                                                    
   TITEL  = PAW_PBE Ag 02Apr2005                                                                    
   LULTRA =        F    use ultrasoft PP ?                                                          
   IUNSCR =        1    unscreen: 0-lin 1-nonlin 2-no                                               
   RPACOR =    2.000    partial core radius                                                         
   POMASS =  107.868; ZVAL   =   11.000    mass and valenz                                          
   RCORE  =    2.500    outmost cutoff radius                                                       
   RWIGS  =    2.840; RWIGS  =    1.503    wigner-seitz radius (au A)                               
   ENMAX  =  249.844; ENMIN  =  187.383 eV                                                          
   ICORE  =        3    local potential                                                             
   LCOR   =        T    correct aug charges                                                         
   LPAW   =        T    paw PP                                                                      
   EAUG   =  412.496                                                                                
   DEXC   =    0.000                                                                                
   RMAX   =    2.560    core radius for proj-oper                                                   
   RAUG   =    1.300    factor for augmentation sphere                                              
   RDEP   =    2.576    radius for radial grids                                                     
   RDEPT  =    2.072    core radius for aug-charge                                                  
                                                                                                    
   Atomic configuration                                                                             
   12 entries                                                                                       
     n  l   j            E        occ.                                                              
     1  0  0.50    -25324.9161   2.0000                                                             
     2  0  0.50     -3728.5341   2.0000                                                             
     2  1  1.50     -3344.0404   6.0000                                                             
     3  0  0.50      -683.5581   2.0000                                                             
     3  1  1.50      -557.3225   6.0000                                                             
     3  2  2.50      -358.3853  10.0000                                                             
     4  0  0.50       -95.0341   2.0000                                                             
     4  1  1.50       -58.5511   6.0000                                                             
     4  2  2.50        -7.4440  10.0000                                                             
     5  0  0.50        -4.4045   1.0000                                                             
     5  1  0.50        -1.3606   0.0000                                                             
     4  3  2.50        -1.3606   0.0000                                                             
   Description                                                                                      
     l       E           TYP  RCUT    TYP  RCUT                                                     
     2     -7.4439781     23  2.400                                                                 
     2     -8.8045607     23  2.400                                                                 
     0     -4.4044681     23  2.400                                                                 
     0      1.9520038     23  2.400                                                                 
     1     -1.3605826     23  2.500                                                                 
     1     27.2116520     23  2.500                                                                 
     3     -4.0817478     23  2.400                                                                 
  local pseudopotential read in
  partial core-charges read in
  partial kinetic energy density read in
  atomic valenz-charges read in
  non local Contribution for L=           2  read in
    real space projection operators read in
  non local Contribution for L=           2  read in
    real space projection operators read in
  non local Contribution for L=           0  read in
    real space projection operators read in
  non local Contribution for L=           0  read in
    real space projection operators read in
  non local Contribution for L=           1  read in
    real space projection operators read in
  non local Contribution for L=           1  read in
    real space projection operators read in
    PAW grid and wavefunctions read in
 
   number of l-projection  operators is LMAX  =           6
   number of lm-projection operators is LMMAX =          18
 
 POTCAR:    PAW_PBE Bi 08Apr2002                  
   VRHFIN =Bi:                                                                                      
   LEXCH  = PE                                                                                      
   EATOM  =   150.8133 eV,   11.0845 Ry                                                             
                                                                                                    
   TITEL  = PAW_PBE Bi 08Apr2002                                                                    
   LULTRA =        F    use ultrasoft PP ?                                                          
   IUNSCR =        1    unscreen: 0-lin 1-nonlin 2-no                                               
   RPACOR =    2.200    partial core radius                                                         
   POMASS =  208.980; ZVAL   =    5.000    mass and valenz                                          
   RCORE  =    3.000    outmost cutoff radius                                                       
   RWIGS  =    3.090; RWIGS  =    1.635    wigner-seitz radius (au A)                               
   ENMAX  =  105.037; ENMIN  =   78.777 eV                                                          
   ICORE  =        3    local potential                                                             
   LCOR   =        T    correct aug charges                                                         
   LPAW   =        T    paw PP                                                                      
   EAUG   =  265.427                                                                                
   DEXC   =    0.000                                                                                
   RMAX   =    3.067    core radius for proj-oper                                                   
   RAUG   =    1.300    factor for augmentation sphere                                              
   RDEP   =    3.012    radius for radial grids                                                     
   RDEPT  =    2.604    core radius for aug-charge                                                  
                                                                                                    
   Atomic configuration                                                                             
   17 entries                                                                                       
     n  l   j            E        occ.                                                              
     1  0  0.50    -90639.6582   2.0000                                                             
     2  0  0.50    -16282.4667   2.0000                                                             
     2  1  1.50    -13922.8287   6.0000                                                             
     3  0  0.50     -3930.4763   2.0000                                                             
     3  1  1.50     -3256.7013   6.0000                                                             
     3  2  2.50     -2581.6169  10.0000                                                             
     4  0  0.50      -902.2614   2.0000                                                             
     4  1  1.50      -681.5915   6.0000                                                             
     4  2  2.50      -429.8249  10.0000                                                             
     4  3  3.50      -152.6004  14.0000                                                             
     5  0  0.50      -157.7156   2.0000                                                             
     5  1  1.50       -95.8054   6.0000                                                             
     5  2  2.50       -27.0806  10.0000                                                             
     6  0  0.50       -14.4732   2.0000                                                             
     6  1  1.50        -4.5702   3.0000                                                             
     6  2  2.50        -2.7212   0.0000                                                             
     5  3  2.50        -2.7212   0.0000                                                             
   Description                                                                                      
     l       E           TYP  RCUT    TYP  RCUT                                                     
     0    -14.4732299     23  3.000                                                                 
     0    -12.2452434     23  3.000                                                                 
     1     -4.5701666     23  3.000                                                                 
     1    -13.6058260     23  3.000                                                                 
     2     -2.7211652     23  3.000                                                                 
     3     -1.3605826      7  3.000                                                                 
  local pseudopotential read in
  partial core-charges read in
  partial kinetic energy density read in
  kinetic energy density of atom read in
  atomic valenz-charges read in
  non local Contribution for L=           0  read in
    real space projection operators read in
  non local Contribution for L=           0  read in
    real space projection operators read in
  non local Contribution for L=           1  read in
    real space projection operators read in
  non local Contribution for L=           1  read in
    real space projection operators read in
  non local Contribution for L=           2  read in
    real space projection operators read in
    PAW grid and wavefunctions read in
 
   number of l-projection  operators is LMAX  =           5
   number of lm-projection operators is LMMAX =          13
 
 POTCAR:    PAW_PBE I 08Apr2002                   
   VRHFIN =I : s2p5                                                                                 
   LEXCH  = PE                                                                                      
   EATOM  =   315.8678 eV,   23.2156 Ry                                                             
                                                                                                    
   TITEL  = PAW_PBE I 08Apr2002                                                                     
   LULTRA =        F    use ultrasoft PP ?                                                          
   IUNSCR =        1    unscreen: 0-lin 1-nonlin 2-no                                               
   RPACOR =    2.200    partial core radius                                                         
   POMASS =  126.904; ZVAL   =    7.000    mass and valenz                                          
   RCORE  =    2.300    outmost cutoff radius                                                       
   RWIGS  =    2.810; RWIGS  =    1.487    wigner-seitz radius (au A)                               
   ENMAX  =  175.647; ENMIN  =  131.735 eV                                                          
   ICORE  =        3    local potential                                                             
   LCOR   =        T    correct aug charges                                                         
   LPAW   =        T    paw PP                                                                      
   EAUG   =  370.139                                                                                
   DEXC   =    0.000                                                                                
   RMAX   =    2.359    core radius for proj-oper                                                   
   RAUG   =    1.300    factor for augmentation sphere                                              
   RDEP   =    2.392    radius for radial grids                                                     
   RDEPT  =    2.170    core radius for aug-charge                                                  
                                                                                                    
   Atomic configuration                                                                             
   13 entries                                                                                       
     n  l   j            E        occ.                                                              
     1  0  0.50    -32976.3739   2.0000                                                             
     2  0  0.50     -5094.5933   2.0000                                                             
     2  1  1.50     -4572.0131   6.0000                                                             
     3  0  0.50     -1028.2813   2.0000                                                             
     3  1  1.50      -859.0250   6.0000                                                             
     3  2  2.50      -605.7620  10.0000                                                             
     4  0  0.50      -180.5540   2.0000                                                             
     4  1  1.50      -127.5306   6.0000                                                             
     4  2  2.50       -50.2720  10.0000                                                             
     5  0  0.50       -17.4058   2.0000                                                             
     5  1  0.50        -7.0851   5.0000                                                             
     5  2  1.50        -7.0750   0.0000                                                             
     4  3  2.50        -7.0750   0.0000                                                             
   Description                                                                                      
     l       E           TYP  RCUT    TYP  RCUT                                                     
     0    -17.4058016     23  2.300                                                                 
     0    -18.7663842     23  2.300                                                                 
     1     -7.0850686     23  2.300                                                                 
     1     -4.2150896     23  2.300                                                                 
     2     -7.0750295     23  2.300                                                                 
     3     -1.3605826     23  2.300                                                                 
  local pseudopotential read in
  partial core-charges read in
  partial kinetic energy density read in
  atomic valenz-charges read in
  non local Contribution for L=           0  read in
    real space projection operators read in
  non local Contribution for L=           0  read in
    real space projection operators read in
  non local Contribution for L=           1  read in
    real space projection operators read in
  non local Contribution for L=           1  read in
    real space projection operators read in
  non local Contribution for L=           2  read in
    real space projection operators read in
    PAW grid and wavefunctions read in
 
   number of l-projection  operators is LMAX  =           5
   number of lm-projection operators is LMMAX =          13
 
 -----------------------------------------------------------------------------
|                                                                             |
|               ----> ADVICE to this user running VASP <----                  |
|                                                                             |
|     You have a (more or less) 'large supercell' and for larger cells it     |
|     might be more efficient to use real-space projection operators.         |
|     Therefore, try LREAL= Auto in the INCAR file.                           |
|     Mind: For very accurate calculation, you might also keep the            |
|     reciprocal projection scheme (i.e. LREAL=.FALSE.).                      |
|                                                                             |
 -----------------------------------------------------------------------------

  PAW_PBE Ag 02Apr2005                  :
 energy of atom  1       EATOM=-1037.2675
 kinetic energy error for atom=    0.0686 (will be added to EATOM!!)
  PAW_PBE Bi 08Apr2002                  :
 energy of atom  2       EATOM= -150.8133
 kinetic energy error for atom=    0.0004 (will be added to EATOM!!)
  PAW_PBE I 08Apr2002                   :
 energy of atom  3       EATOM= -315.8678
 kinetic energy error for atom=    0.0044 (will be added to EATOM!!)
 
 
 POSCAR: Generation Seed Number
  positions in direct lattice
  velocities in cartesian coordinates
 exchange correlation table for  LEXCH =        8
   RHO(1)=    0.500       N(1)  =     2000
   RHO(2)=  100.500       N(2)  =     4000
 


--------------------------------------------------------------------------------------------------------


 ion  position               nearest neighbor table
   1  0.005  0.977  0.010-  33 2.94  27 2.99  17 3.07  21 3.13  34 3.16  25 3.56
   2  0.775  0.751  0.024-  21 2.96  23 2.96  27 2.97  47 2.97
   3  0.003  0.496  0.498-  20 3.02  35 3.02  36 3.07  24 3.08  26 3.22  28 3.32
   4  0.247  0.998  0.253-  33 3.02  18 3.02  17 3.08  37 3.08  43 3.25  41 3.30
   5  0.488  0.023  0.496-  18 2.94  30 2.99  37 3.07  38 3.12  22 3.19  32 3.56
   6  0.760  0.523  0.256-  35 2.94  47 2.99  24 3.07  23 3.14  39 3.15  45 3.56
   7  0.476  0.250  0.725-  38 2.96  40 2.96  30 2.97  42 2.97
   8  0.245  0.477  0.741-  20 2.94  42 2.99  36 3.07  19 3.14  40 3.14  44 3.56
   9  0.249  0.246  0.999-  17 3.03  42 3.06  25 3.13  29 3.14  19 3.20  41 3.20
  10  0.503  0.500  0.998-  23 3.07  40 3.07  31 3.14  29 3.14  39 3.18  19 3.19
  11  0.000  0.250  0.250-  35 3.11  41 3.11  33 3.11  26 3.12  25 3.14  45 3.14
  12  0.001  0.746  0.751-  36 3.03  27 3.06  44 3.12  48 3.14  34 3.20  28 3.20
  13  0.748  1.000  0.752-  38 3.07  21 3.07  46 3.14  48 3.14  22 3.18  34 3.18
  14  0.502  0.754  0.252-  37 3.03  47 3.05  32 3.12  31 3.14  39 3.20  43 3.20
  15  0.748  0.253  0.499-  24 3.03  30 3.05  45 3.12  46 3.14  22 3.19  26 3.20
  16  0.249  0.750  0.500-  28 3.11  18 3.11  20 3.11  43 3.11  44 3.14  32 3.14
  17  0.244  0.008  0.011-   9 3.03   1 3.07   4 3.08
  18  0.259  0.994  0.490-   5 2.94   4 3.02  16 3.11
  19  0.252  0.498  0.987-   8 3.14  10 3.19   9 3.20
  20  0.240  0.505  0.511-   8 2.94   3 3.02  16 3.11
  21  0.759  0.981  0.992-   2 2.96  13 3.07   1 3.13
  22  0.738  0.002  0.502-  13 3.18   5 3.19  15 3.19
  23  0.743  0.520  0.009-   2 2.96  10 3.07   6 3.14
  24  0.761  0.492  0.495-  15 3.03   6 3.07   3 3.08
  25  0.003  0.257  0.003-   9 3.13  11 3.14   1 3.56
  26  0.000  0.243  0.495-  11 3.12  15 3.20   3 3.22
  27  0.006  0.742  0.992-   2 2.97   1 2.99  12 3.06
  28  0.005  0.757  0.500-  16 3.11  12 3.20   3 3.32
  29  0.496  0.253  0.009-  10 3.14   9 3.14
  30  0.508  0.257  0.494-   7 2.97   5 2.99  15 3.05
  31  0.491  0.747  0.005-  10 3.14  14 3.14
  32  0.497  0.743  0.497-  14 3.12  16 3.14   5 3.56
  33  0.010  0.006  0.240-   1 2.94   4 3.02  11 3.11
  34  0.998  0.998  0.762-   1 3.16  13 3.18  12 3.20
  35  0.990  0.494  0.260-   6 2.94   3 3.02  11 3.11
  36  0.005  0.508  0.739-  12 3.03   3 3.07   8 3.07
  37  0.489  0.992  0.256-  14 3.03   5 3.07   4 3.08
  38  0.507  0.019  0.740-   7 2.96  13 3.07   5 3.12
  39  0.513  0.503  0.248-   6 3.15  10 3.18  14 3.20
  40  0.491  0.480  0.757-   7 2.96  10 3.07   8 3.14
  41  0.245  0.258  0.250-  11 3.11   9 3.20   4 3.30
  42  0.245  0.242  0.758-   7 2.97   8 2.99   9 3.06
  43  0.250  0.743  0.255-  16 3.11  14 3.20   4 3.25
  44  0.247  0.757  0.747-  12 3.12  16 3.14   8 3.56
  45  0.753  0.243  0.253-  15 3.12  11 3.14   6 3.56
  46  0.759  0.247  0.746-  13 3.14  15 3.14
  47  0.742  0.758  0.256-   2 2.97   6 2.99  14 3.05
  48  0.754  0.753  0.741-  13 3.14  12 3.14
 
 -----------------------------------------------------------------------------
|                                                                             |
|           W    W    AA    RRRRR   N    N  II  N    N   GGGG   !!!           |
|           W    W   A  A   R    R  NN   N  II  NN   N  G    G  !!!           |
|           W    W  A    A  R    R  N N  N  II  N N  N  G       !!!           |
|           W WW W  AAAAAA  RRRRR   N  N N  II  N  N N  G  GGG   !            |
|           WW  WW  A    A  R   R   N   NN  II  N   NN  G    G                |
|           W    W  A    A  R    R  N    N  II  N    N   GGGG   !!!           |
|                                                                             |
|     The determination of the symmetry of your systems shows a strong        |
|     dependence on the tolerance parameter SYMPREC. This is often the        |
|     result of "noise" in the structural parameters (lattice vectors         |
|     and/or ionic positions). Set NWRITE=3 for more details.                 |
|                                                                             |
 -----------------------------------------------------------------------------

  LATTYP: Found a triclinic cell.
 ALAT       =    17.9699452594
 B/A-ratio  =     0.7071014500
 C/A-ratio  =     1.0000398695
 COS(alpha) =     0.0000114324
 COS(beta)  =     0.5000623246
 COS(gamma) =     0.7069949039
  
  Lattice vectors:
  
 A1 = (   0.0001614838,  12.7058177873, -12.7075224555)
 A2 = (   0.0011090872,  12.7065742480,   0.0011578928)
 A3 = (  12.7068609500,   0.0002543124, -12.7074925569)


Analysis of symmetry for initial positions (statically):
=====================================================================
 Subroutine PRICEL returns:
 Original cell was already a primitive cell.
 

 Routine SETGRP: Setting up the symmetry group for a 
 triclinic supercell.


 Subroutine GETGRP returns: Found  1 space group operations
 (whereof  1 operations were pure point group operations)
 out of a pool of  2 trial point group operations.


The static configuration has the point symmetry C_1 .


Analysis of symmetry for dynamics (positions and initial velocities):
=====================================================================
 Subroutine PRICEL returns:
 Original cell was already a primitive cell.
 

 Routine SETGRP: Setting up the symmetry group for a 
 triclinic supercell.


 Subroutine GETGRP returns: Found  1 space group operations
 (whereof  1 operations were pure point group operations)
 out of a pool of  2 trial point group operations.


The dynamic configuration has the point symmetry C_1 .


 Subroutine INISYM returns: Found  1 space group operations
 (whereof  1 operations are pure point group operations),
 and found     1 'primitive' translations


----------------------------------------------------------------------------------------

                                     Primitive cell                                     

  volume of cell :    2052.1051

  direct lattice vectors                    reciprocal lattice vectors
    12.707808553  0.001010773  0.001187791     0.078691775 -0.000006868 -0.000005867
     0.001109087 12.706574248  0.001157893    -0.000006259  0.078699419 -0.000004684
     0.000947603  0.000756461 12.708680348    -0.000007354 -0.000007170  0.078686377

  length of vectors
    12.707808649 12.706574349 12.708680406     0.078691776  0.078699420  0.078686378

  position of ions in fractional coordinates (direct lattice)
     0.004697653  0.976651134  0.010460694
     0.775344715  0.750938075  0.024484908
     0.002829255  0.496328740  0.498035931
     0.246873644  0.998272510  0.252751555
     0.488370249  0.023193275  0.495614701
     0.759932728  0.523273346  0.255630734
     0.475759844  0.249765984  0.724907859
     0.244605027  0.477006385  0.740504387
     0.248740160  0.246341529  0.998583007
     0.502653447  0.500125094  0.997561150
     0.000053839  0.250146926  0.250094847
     0.001032797  0.746315256  0.751193362
     0.748010530  0.999983044  0.751812647
     0.501520619  0.753677829  0.251763772
     0.748440513  0.253395479  0.498742223
     0.249333762  0.749753120  0.500117692
     0.244254299  0.008022398  0.010912686
     0.259007919  0.994177884  0.490249124
     0.252185406  0.497567427  0.986907644
     0.239836982  0.505323035  0.510679485
     0.759113483  0.980737149  0.992499833
     0.738213637  0.002312559  0.501835009
     0.742938749  0.520446874  0.009033931
     0.760553030  0.491839310  0.494995463
     0.002924269  0.256737800  0.003354564
     0.000358977  0.242726019  0.495205965
     0.006203297  0.742292333  0.991727352
     0.004852226  0.757357939  0.499836358
     0.495719232  0.253366560  0.009361772
     0.508171003  0.257390546  0.493815075
     0.490667142  0.746674578  0.004642687
     0.496595840  0.743436701  0.497333873
     0.009697801  0.005708615  0.240125366
     0.998082517  0.997581832  0.762436669
     0.989615476  0.494495265  0.260473570
     0.004846181  0.507898109  0.739466468
     0.488885033  0.992007825  0.256088272
     0.507357777  0.019466140  0.740336381
     0.512753391  0.502508441  0.247929867
     0.491448346  0.479993081  0.757156104
     0.244705326  0.257740742  0.250147612
     0.244532973  0.242368480  0.758197185
     0.249645663  0.742544562  0.255196182
     0.246664037  0.756767248  0.747058798
     0.752847349  0.243268689  0.253234714
     0.758817890  0.246536204  0.745893186
     0.741783926  0.757791193  0.255674060
     0.753955792  0.753389392  0.741062652

  ion indices of the primitive-cell ions
   primitive index   ion index
                 1           1
                 2           2
                 3           3
                 4           4
                 5           5
                 6           6
                 7           7
                 8           8
                 9           9
                10          10
                11          11
                12          12
                13          13
                14          14
                15          15
                16          16
                17          17
                18          18
                19          19
                20          20
                21          21
                22          22
                23          23
                24          24
                25          25
                26          26
                27          27
                28          28
                29          29
                30          30
                31          31
                32          32
                33          33
                34          34
                35          35
                36          36
                37          37
                38          38
                39          39
                40          40
                41          41
                42          42
                43          43
                44          44
                45          45
                46          46
                47          47
                48          48

----------------------------------------------------------------------------------------

 
 
 KPOINTS: agbii                                   

Automatic generation of k-mesh.
Space group operators:
 irot       det(A)        alpha          n_x          n_y          n_z        tau_x        tau_y        tau_z
    1     1.000000     0.000001     1.000000     0.000000     0.000000     0.000000     0.000000     0.000000
 TETIRR: Found    192 inequivalent tetrahedra from      384
 
 Subroutine IBZKPT returns following result:
 ===========================================
 
 Found     36 irreducible k-points:
 
 Following reciprocal coordinates:
            Coordinates               Weight
  0.000000  0.000000  0.000000      1.000000
  0.250000 -0.000000  0.000000      2.000000
  0.500000 -0.000000  0.000000      1.000000
 -0.000000  0.250000  0.000000      2.000000
  0.250000  0.250000 -0.000000      2.000000
  0.500000  0.250000 -0.000000      2.000000
 -0.250000  0.250000  0.000000      2.000000
 -0.000000  0.500000 -0.000000      1.000000
  0.250000  0.500000  0.000000      2.000000
  0.500000  0.500000  0.000000      1.000000
  0.000000  0.000000  0.250000      2.000000
  0.250000  0.000000  0.250000      2.000000
  0.500000  0.000000  0.250000      2.000000
 -0.250000  0.000000  0.250000      2.000000
 -0.000000  0.250000  0.250000      2.000000
  0.250000  0.250000  0.250000      2.000000
  0.500000  0.250000  0.250000      2.000000
 -0.250000  0.250000  0.250000      2.000000
 -0.000000  0.500000  0.250000      2.000000
  0.250000  0.500000  0.250000      2.000000
  0.500000  0.500000  0.250000      2.000000
 -0.250000  0.500000  0.250000      2.000000
 -0.000000 -0.250000  0.250000      2.000000
  0.250000 -0.250000  0.250000      2.000000
  0.500000 -0.250000  0.250000      2.000000
 -0.250000 -0.250000  0.250000      2.000000
  0.000000  0.000000  0.500000      1.000000
  0.250000  0.000000  0.500000      2.000000
  0.500000  0.000000  0.500000      1.000000
  0.000000  0.250000  0.500000      2.000000
  0.250000  0.250000  0.500000      2.000000
  0.500000  0.250000  0.500000      2.000000
 -0.250000  0.250000  0.500000      2.000000
 -0.000000  0.500000  0.500000      1.000000
  0.250000  0.500000  0.500000      2.000000
  0.500000  0.500000  0.500000      1.000000
 
 Following cartesian coordinates:
            Coordinates               Weight
  0.000000  0.000000  0.000000      1.000000
  0.019673 -0.000002 -0.000001      2.000000
  0.039346 -0.000003 -0.000003      1.000000
 -0.000002  0.019675 -0.000001      2.000000
  0.019671  0.019673 -0.000003      2.000000
  0.039344  0.019671 -0.000004      2.000000
 -0.019675  0.019677  0.000000      2.000000
 -0.000003  0.039350 -0.000002      1.000000
  0.019670  0.039348 -0.000004      2.000000
  0.039343  0.039346 -0.000005      1.000000
 -0.000002 -0.000002  0.019672      2.000000
  0.019671 -0.000004  0.019670      2.000000
  0.039344 -0.000005  0.019669      2.000000
 -0.019675 -0.000000  0.019673      2.000000
 -0.000003  0.019673  0.019670      2.000000
  0.019670  0.019671  0.019669      2.000000
  0.039342  0.019670  0.019667      2.000000
 -0.019676  0.019675  0.019672      2.000000
 -0.000005  0.039348  0.019669      2.000000
  0.019668  0.039346  0.019668      2.000000
  0.039341  0.039344  0.019666      2.000000
 -0.019678  0.039350  0.019671      2.000000
 -0.000000 -0.019677  0.019673      2.000000
  0.019673 -0.019678  0.019671      2.000000
  0.039346 -0.019680  0.019670      2.000000
 -0.019673 -0.019675  0.019674      2.000000
 -0.000004 -0.000004  0.039343      1.000000
  0.019669 -0.000005  0.039342      2.000000
  0.039342 -0.000007  0.039340      1.000000
 -0.000005  0.019671  0.039342      2.000000
  0.019668  0.019670  0.039341      2.000000
  0.039341  0.019668  0.039339      2.000000
 -0.019678  0.019673  0.039343      2.000000
 -0.000007  0.039346  0.039341      1.000000
  0.019666  0.039344  0.039339      2.000000
  0.039339  0.039343  0.039338      1.000000
 


--------------------------------------------------------------------------------------------------------




 Dimension of arrays:
   k-points           NKPTS =     36   k-points in BZ     NKDIM =     36   number of bands    NBANDS=    211
   number of dos      NEDOS =   3000   number of ions     NIONS =     48
   non local maximal  LDIM  =      6   non local SUM 2l+1 LMDIM =     18
   total plane-waves  NPLWV = 125000
   max r-space proj   IRMAX =      1   max aug-charges    IRDMAX=   6001
   dimension x,y,z NGX =    50 NGY =   50 NGZ =   50
   dimension x,y,z NGXF=   100 NGYF=  100 NGZF=  100
   support grid    NGXF=   100 NGYF=  100 NGZF=  100
   ions per type =               8   8  32
   NGX,Y,Z   is equivalent  to a cutoff of   6.54,  6.54,  6.54 a.u.
   NGXF,Y,Z  is equivalent  to a cutoff of  13.08, 13.08, 13.08 a.u.

 SYSTEM =  unknown system                          
 POSCAR =  Generation Seed Number                  

 Startparameter for this run:
   NWRITE =      2    write-flag & timer
   PREC   = normal    normal or accurate (medium, high low for compatibility)
   ISTART =      1    job   : 0-new  1-cont  2-samecut
   ICHARG =      1    charge: 1-file 2-atom 10-const
   ISPIN  =      1    spin polarized calculation?
   LNONCOLLINEAR =      F non collinear calculations
   LSORBIT =      F    spin-orbit coupling
   INIWAV =      1    electr: 0-lowe 1-rand  2-diag
   LASPH  =      F    aspherical Exc in radial PAW
   METAGGA=      F    non-selfconsistent MetaGGA calc.

 Electronic Relaxation 1
   ENCUT  =  250.0 eV  18.37 Ry    4.29 a.u.  16.38 16.38 16.38*2*pi/ulx,y,z
   ENINI  =  250.0     initial cutoff
   ENAUG  =  412.5 eV  augmentation charge cutoff
   NELM   =     60;   NELMIN=  2; NELMDL=  0     # of ELM steps 
   EDIFF  = 0.1E-05   stopping-criterion for ELM
   LREAL  =      F    real-space projection
   NLSPLINE    = F    spline interpolate recip. space projectors
   LCOMPAT=      F    compatible to vasp.4.4
   GGA_COMPAT  = T    GGA compatible to vasp.4.4-vasp.4.6
   LMAXPAW     = -100 max onsite density
   LMAXMIX     =    4 max onsite mixed and CHGCAR
   VOSKOWN=      0    Vosko Wilk Nusair interpolation
   ROPT   =    0.00000   0.00000   0.00000
 Ionic relaxation
   EDIFFG = -.1E-01   stopping-criterion for IOM
   NSW    =      0    number of steps for IOM
   NBLOCK =      1;   KBLOCK =      1    inner block; outer block 
   IBRION =     -1    ionic relax: 0-MD 1-quasi-New 2-CG
   NFREE  =      0    steps in history (QN), initial steepest desc. (CG)
   ISIF   =     -1    stress and relaxation
   IWAVPR =     10    prediction:  0-non 1-charg 2-wave 3-comb
   ISYM   =      2    0-nonsym 1-usesym 2-fastsym
   LCORR  =      T    Harris-Foulkes like correction to forces

   POTIM  = 0.5000    time-step for ionic-motion
   TEIN   =    0.0    initial temperature
   TEBEG  =    0.0;   TEEND  =   0.0 temperature during run
   SMASS  =  -3.00    Nose mass-parameter (am)
   estimated Nose-frequenzy (Omega)   =  0.10E-29 period in steps = 0.13E+47 mass=  -0.369E-26a.u.
   SCALEE = 1.0000    scale energy and forces
   NPACO  =    256;   APACO  = 16.0  distance and # of slots for P.C.
   PSTRESS=    0.0 pullay stress

  Mass of Ions in am
   POMASS = 107.87208.98126.90
  Ionic Valenz
   ZVAL   =  11.00  5.00  7.00
  Atomic Wigner-Seitz radii
   RWIGS  =  -1.00 -1.00 -1.00
  virtual crystal weights 
   VCA    =   1.00  1.00  1.00
   NELECT =     352.0000    total number of electrons
   NUPDOWN=      -1.0000    fix difference up-down

 DOS related values:
   EMIN   =  10.00;   EMAX   =-10.00  energy-range for DOS
   EFERMI =   0.00
   ISMEAR =    -5;   SIGMA  =   0.20  broadening in eV -4-tet -1-fermi 0-gaus

 Electronic relaxation 2 (details)
   IALGO  =     38    algorithm
   LDIAG  =      T    sub-space diagonalisation (order eigenvalues)
   LSUBROT=      F    optimize rotation matrix (better conditioning)
   TURBO    =      0    0=normal 1=particle mesh
   IRESTART =      0    0=no restart 2=restart with 2 vectors
   NREBOOT  =      0    no. of reboots
   NMIN     =      0    reboot dimension
   EREF     =   0.00    reference energy to select bands
   IMIX   =      4    mixing-type and parameters
     AMIX     =   0.40;   BMIX     =  1.00
     AMIX_MAG =   1.60;   BMIX_MAG =  1.00
     AMIN     =   0.10
     WC   =   100.;   INIMIX=   1;  MIXPRE=   1;  MAXMIX= -45

 Intra band minimization:
   WEIMIN = 0.0000     energy-eigenvalue tresh-hold
   EBREAK =  0.12E-08  absolut break condition
   DEPER  =   0.30     relativ break condition  

   TIME   =   0.40     timestep for ELM

  volume/ion in A,a.u.               =      42.75       288.51
  Fermi-wavevector in a.u.,A,eV,Ry     =   0.909611  1.718916 11.257362  0.827393
  Thomas-Fermi vector in A             =   2.033676
 
 Write flags
   LWAVE        =      T    write WAVECAR
   LDOWNSAMPLE  =      F    k-point downsampling of WAVECAR
   LCHARG       =      T    write CHGCAR
   LVTOT        =      F    write LOCPOT, total local potential
   LVHAR        =      F    write LOCPOT, Hartree potential only
   LELF         =      F    write electronic localiz. function (ELF)
   LORBIT       =     10    0 simple, 1 ext, 2 COOP (PROOUT), +10 PAW based schemes


 Dipole corrections
   LMONO  =      F    monopole corrections only (constant potential shift)
   LDIPOL =      F    correct potential (dipole corrections)
   IDIPOL =      0    1-x, 2-y, 3-z, 4-all directions 
   EPSILON=  1.0000000 bulk dielectric constant

 Exchange correlation treatment:
   GGA     =    --    GGA type
   LEXCH   =     8    internal setting for exchange type
   VOSKOWN=      0    Vosko Wilk Nusair interpolation
   LHFCALC =     F    Hartree Fock is set to
   LHFONE  =     F    Hartree Fock one center treatment
   AEXX    =    0.0000 exact exchange contribution

 Linear response parameters
   LEPSILON=     F    determine dielectric tensor
   LRPA    =     F    only Hartree local field effects (RPA)
   LNABLA  =     F    use nabla operator in PAW spheres
   LVEL    =     F    velocity operator in full k-point grid
   LINTERFAST=   F  fast interpolation
   KINTER  =     0    interpolate to denser k-point grid
   CSHIFT  =0.1000    complex shift for real part using Kramers Kronig
   OMEGAMAX=  -1.0    maximum frequency
   DEG_THRESHOLD= 0.2000000E-02 threshold for treating states as degnerate
   RTIME   =   -0.100 relaxation time in fs
  (WPLASMAI=    0.000 imaginary part of plasma frequency in eV, 0.658/RTIME)
   DFIELD  = 0.0000000 0.0000000 0.0000000 field for delta impulse in time
 
 Orbital magnetization related:
   ORBITALMAG=     F  switch on orbital magnetization
   LCHIMAG   =     F  perturbation theory with respect to B field
   DQ        =  0.001000  dq finite difference perturbation B field
   LLRAUG    =     F  two centre corrections for induced B field



--------------------------------------------------------------------------------------------------------


 Static calculation
 charge density and potential will be updated during run
 non-spin polarized calculation
 Variant of blocked Davidson
 Davidson routine will perform the subspace rotation
 perform sub-space diagonalisation
    after iterative eigenvector-optimisation
 modified Broyden-mixing scheme, WC =      100.0
 initial mixing is a Kerker type mixing with AMIX =  0.4000 and BMIX =      1.0000
 Hartree-type preconditioning will be used
 using additional bands           35
 reciprocal scheme for non local part
 use partial core corrections
 calculate Harris-corrections to forces 
   (improved forces if not selfconsistent)
 use gradient corrections 
 use of overlap-Matrix (Vanderbilt PP)
 Fermi weights with tetrahedron method with Bloechl corrections


--------------------------------------------------------------------------------------------------------


  energy-cutoff  :      250.00
  volume of cell :     2052.11
      direct lattice vectors                 reciprocal lattice vectors
    12.707808553  0.001010773  0.001187791     0.078691775 -0.000006868 -0.000005867
     0.001109087 12.706574248  0.001157893    -0.000006259  0.078699419 -0.000004684
     0.000947603  0.000756461 12.708680348    -0.000007354 -0.000007170  0.078686377

  length of vectors
    12.707808649 12.706574349 12.708680406     0.078691776  0.078699420  0.078686378


 
 old parameters found on file WAVECAR:
  energy-cutoff  :      250.00
  volume of cell :     2052.11
      direct lattice vectors                 reciprocal lattice vectors
    12.707808553  0.001010773  0.001187791     0.078691775 -0.000006868 -0.000005867
     0.001109087 12.706574248  0.001157893    -0.000006259  0.078699419 -0.000004684
     0.000947603  0.000756461 12.708680348    -0.000007354 -0.000007170  0.078686377

  length of vectors

 
 k-points in units of 2pi/SCALE and weight: agbii                                   
   0.00000000  0.00000000  0.00000000       0.016
   0.01967294 -0.00000172 -0.00000147       0.031
   0.03934589 -0.00000343 -0.00000293       0.016
  -0.00000156  0.01967485 -0.00000117       0.031
   0.01967138  0.01967314 -0.00000264       0.031
   0.03934432  0.01967142 -0.00000410       0.031
  -0.01967451  0.01967657  0.00000030       0.031
  -0.00000313  0.03934971 -0.00000234       0.016
   0.01966981  0.03934799 -0.00000381       0.031
   0.03934276  0.03934628 -0.00000528       0.016
  -0.00000184 -0.00000179  0.01967159       0.031
   0.01967111 -0.00000351  0.01967013       0.031
   0.03934405 -0.00000523  0.01966866       0.031
  -0.01967478 -0.00000008  0.01967306       0.031
  -0.00000340  0.01967306  0.01967042       0.031
   0.01966954  0.01967135  0.01966896       0.031
   0.03934248  0.01966963  0.01966749       0.031
  -0.01967635  0.01967478  0.01967189       0.031
  -0.00000497  0.03934792  0.01966925       0.031
   0.01966798  0.03934620  0.01966779       0.031
   0.03934092  0.03934448  0.01966632       0.031
  -0.01967791  0.03934963  0.01967072       0.031
  -0.00000027 -0.01967665  0.01967277       0.031
   0.01967267 -0.01967836  0.01967130       0.031
   0.03934561 -0.01968008  0.01966983       0.031
  -0.01967322 -0.01967493  0.01967423       0.031
  -0.00000368 -0.00000358  0.03934319       0.016
   0.01966927 -0.00000530  0.03934172       0.031
   0.03934221 -0.00000702  0.03934025       0.016
  -0.00000524  0.01967127  0.03934202       0.031
   0.01966770  0.01966955  0.03934055       0.031
   0.03934065  0.01966784  0.03933908       0.031
  -0.01967819  0.01967299  0.03934348       0.031
  -0.00000681  0.03934612  0.03934085       0.016
   0.01966614  0.03934441  0.03933938       0.031
   0.03933908  0.03934269  0.03933791       0.016
 
 k-points in reciprocal lattice and weights: agbii                                   
   0.00000000  0.00000000  0.00000000       0.016
   0.25000000 -0.00000000  0.00000000       0.031
   0.50000000 -0.00000000  0.00000000       0.016
  -0.00000000  0.25000000  0.00000000       0.031
   0.25000000  0.25000000 -0.00000000       0.031
   0.50000000  0.25000000 -0.00000000       0.031
  -0.25000000  0.25000000  0.00000000       0.031
  -0.00000000  0.50000000 -0.00000000       0.016
   0.25000000  0.50000000  0.00000000       0.031
   0.50000000  0.50000000  0.00000000       0.016
   0.00000000  0.00000000  0.25000000       0.031
   0.25000000  0.00000000  0.25000000       0.031
   0.50000000  0.00000000  0.25000000       0.031
  -0.25000000  0.00000000  0.25000000       0.031
  -0.00000000  0.25000000  0.25000000       0.031
   0.25000000  0.25000000  0.25000000       0.031
   0.50000000  0.25000000  0.25000000       0.031
  -0.25000000  0.25000000  0.25000000       0.031
  -0.00000000  0.50000000  0.25000000       0.031
   0.25000000  0.50000000  0.25000000       0.031
   0.50000000  0.50000000  0.25000000       0.031
  -0.25000000  0.50000000  0.25000000       0.031
  -0.00000000 -0.25000000  0.25000000       0.031
   0.25000000 -0.25000000  0.25000000       0.031
   0.50000000 -0.25000000  0.25000000       0.031
  -0.25000000 -0.25000000  0.25000000       0.031
   0.00000000  0.00000000  0.50000000       0.016
   0.25000000  0.00000000  0.50000000       0.031
   0.50000000  0.00000000  0.50000000       0.016
   0.00000000  0.25000000  0.50000000       0.031
   0.25000000  0.25000000  0.50000000       0.031
   0.50000000  0.25000000  0.50000000       0.031
  -0.25000000  0.25000000  0.50000000       0.031
  -0.00000000  0.50000000  0.50000000       0.016
   0.25000000  0.50000000  0.50000000       0.031
   0.50000000  0.50000000  0.50000000       0.016
 
 position of ions in fractional coordinates (direct lattice) 
   0.00469765  0.97665113  0.01046069
   0.77534471  0.75093808  0.02448491
   0.00282925  0.49632874  0.49803593
   0.24687364  0.99827251  0.25275155
   0.48837025  0.02319327  0.49561470
   0.75993273  0.52327335  0.25563073
   0.47575984  0.24976598  0.72490786
   0.24460503  0.47700638  0.74050439
   0.24874016  0.24634153  0.99858301
   0.50265345  0.50012509  0.99756115
   0.00005384  0.25014693  0.25009485
   0.00103280  0.74631526  0.75119336
   0.74801053  0.99998304  0.75181265
   0.50152062  0.75367783  0.25176377
   0.74844051  0.25339548  0.49874222
   0.24933376  0.74975312  0.50011769
   0.24425430  0.00802240  0.01091269
   0.25900792  0.99417788  0.49024912
   0.25218541  0.49756743  0.98690764
   0.23983698  0.50532304  0.51067948
   0.75911348  0.98073715  0.99249983
   0.73821364  0.00231256  0.50183501
   0.74293875  0.52044687  0.00903393
   0.76055303  0.49183931  0.49499546
   0.00292427  0.25673780  0.00335456
   0.00035898  0.24272602  0.49520597
   0.00620330  0.74229233  0.99172735
   0.00485223  0.75735794  0.49983636
   0.49571923  0.25336656  0.00936177
   0.50817100  0.25739055  0.49381508
   0.49066714  0.74667458  0.00464269
   0.49659584  0.74343670  0.49733387
   0.00969780  0.00570861  0.24012537
   0.99808252  0.99758183  0.76243667
   0.98961548  0.49449526  0.26047357
   0.00484618  0.50789811  0.73946647
   0.48888503  0.99200783  0.25608827
   0.50735778  0.01946614  0.74033638
   0.51275339  0.50250844  0.24792987
   0.49144835  0.47999308  0.75715610
   0.24470533  0.25774074  0.25014761
   0.24453297  0.24236848  0.75819718
   0.24964566  0.74254456  0.25519618
   0.24666404  0.75676725  0.74705880
   0.75284735  0.24326869  0.25323471
   0.75881789  0.24653620  0.74589319
   0.74178393  0.75779119  0.25567406
   0.75395579  0.75338939  0.74106265
 
 position of ions in cartesian coordinates  (Angst):
   0.06078997 12.40990281  0.13407805
   9.85378826  9.54265263  0.31296133
   0.03697604  6.30701759  6.32995750
   3.13856968 12.68506450  3.21358784
   6.20661100  0.29557561  6.29921575
   9.65790222  6.64997312  3.25023782
   6.04682896  3.17469926  9.21347657
   3.10962460  6.06192445  9.41167641
   3.16216181  3.13116373 12.69125293
   6.38912374  6.35613932 12.67886192
   0.00119860  3.17869972  3.17866517
   0.01466414  9.48367950  9.54754169
   9.50739610 12.70768358  9.55659297
   6.37430247  9.57736066  3.20105369
   9.51179240  3.22092225  6.33953789
   3.16979117  9.52742403  6.35700017
   3.10395611  0.10219233  0.13898524
   3.29299025 12.63322775  6.23187821
   3.20621091  6.32337892 12.54316945
   3.04884683  6.42155340  6.49093232
   9.64869703 12.46332748 12.61540038
   9.38155567  0.03051049  6.37854024
   9.44170917  6.61385462  0.11629443
   9.66597685  6.25073591  6.29221199
   0.03744897  3.26226341  0.04293284
   0.00530027  3.08459114  6.29369580
   0.08059335  9.43274912 12.60441277
   0.06297478  9.62380790  6.35314320
   6.29979498  3.21992915  0.11985796
   6.45849323  3.27143928  6.27663957
   6.23613664  9.48817543  0.06044980
   6.31194068  9.44741180  6.32190789
   0.12347168  0.07272838  3.05169465
  12.68527044 12.67743320  9.69190452
  12.57663927  6.28453811  3.31202337
   0.06284837  6.45420931  9.39823681
   6.21400029 12.60570896  3.25627332
   6.44812864  0.24842081  9.40932359
   6.51676419  6.38586664  3.15205233
   6.24648133  6.10013722  9.62359441
   3.11019134  3.27543845  3.17963514
   3.10846548  3.08049380  9.63625675
   3.17351466  9.43564298  3.24436302
   3.13610660  9.61673367  9.49530070
   9.56754976  3.09206418  3.21945494
   9.64389272  3.13396181  9.48050486
   9.42753085  9.62987324  3.25103842
   9.58266367  9.57432091  9.41969625
 


--------------------------------------------------------------------------------------------------------


 k-point   1 :   0.0000 0.0000 0.0000  plane waves:   18349
 k-point   2 :   0.2500-0.0000 0.0000  plane waves:   18465
 k-point   3 :   0.5000-0.0000 0.0000  plane waves:   18464
 k-point   4 :  -0.0000 0.2500 0.0000  plane waves:   18465
 k-point   5 :   0.2500 0.2500-0.0000  plane waves:   18429
 k-point   6 :   0.5000 0.2500-0.0000  plane waves:   18418
 k-point   7 :  -0.2500 0.2500 0.0000  plane waves:   18429
 k-point   8 :  -0.0000 0.5000-0.0000  plane waves:   18464
 k-point   9 :   0.2500 0.5000 0.0000  plane waves:   18418
 k-point  10 :   0.5000 0.5000 0.0000  plane waves:   18400
 k-point  11 :   0.0000 0.0000 0.2500  plane waves:   18465
 k-point  12 :   0.2500 0.0000 0.2500  plane waves:   18429
 k-point  13 :   0.5000 0.0000 0.2500  plane waves:   18418
 k-point  14 :  -0.2500 0.0000 0.2500  plane waves:   18429
 k-point  15 :  -0.0000 0.2500 0.2500  plane waves:   18429
 k-point  16 :   0.2500 0.2500 0.2500  plane waves:   18430
 k-point  17 :   0.5000 0.2500 0.2500  plane waves:   18425
 k-point  18 :  -0.2500 0.2500 0.2500  plane waves:   18430
 k-point  19 :  -0.0000 0.5000 0.2500  plane waves:   18418
 k-point  20 :   0.2500 0.5000 0.2500  plane waves:   18429
 k-point  21 :   0.5000 0.5000 0.2500  plane waves:   18432
 k-point  22 :  -0.2500 0.5000 0.2500  plane waves:   18427
 k-point  23 :  -0.0000-0.2500 0.2500  plane waves:   18429
 k-point  24 :   0.2500-0.2500 0.2500  plane waves:   18430
 k-point  25 :   0.5000-0.2500 0.2500  plane waves:   18428
 k-point  26 :  -0.2500-0.2500 0.2500  plane waves:   18430
 k-point  27 :   0.0000 0.0000 0.5000  plane waves:   18464
 k-point  28 :   0.2500 0.0000 0.5000  plane waves:   18418
 k-point  29 :   0.5000 0.0000 0.5000  plane waves:   18400
 k-point  30 :   0.0000 0.2500 0.5000  plane waves:   18418
 k-point  31 :   0.2500 0.2500 0.5000  plane waves:   18429
 k-point  32 :   0.5000 0.2500 0.5000  plane waves:   18432
 k-point  33 :  -0.2500 0.2500 0.5000  plane waves:   18430
 k-point  34 :  -0.0000 0.5000 0.5000  plane waves:   18400
 k-point  35 :   0.2500 0.5000 0.5000  plane waves:   18432
 k-point  36 :   0.5000 0.5000 0.5000  plane waves:   18336

 maximum and minimum number of plane-waves per node :     18465    18336

 maximum number of plane-waves:     18465
 maximum index in each direction: 
   IXMAX=   16   IYMAX=   16   IZMAX=   16
   IXMIN=  -16   IYMIN=  -16   IZMIN=  -16


 serial   3D FFT for wavefunctions
 parallel 3D FFT for charge:
    minimum data exchange during FFTs selected (reduces bandwidth)


 total amount of memory used by VASP MPI-rank0  2761676. kBytes
=======================================================================

   base      :      30000. kBytes
   nonl-proj :     301348. kBytes
   fftplans  :      34720. kBytes
   grid      :      70000. kBytes
   one-center:        746. kBytes
   wavefun   :    2324862. kBytes
 
     INWAV:  cpu time    4.5102: real time    5.9614
 Broyden mixing: mesh for mixing (old mesh)
   NGX = 33   NGY = 33   NGZ = 33
  (NGX  =100   NGY  =100   NGZ  =100)
  gives a total of  35937 points

 initial charge density was supplied:
 number of electron     352.0000369 magnetization 
 keeping initial charge density in first step


--------------------------------------------------------------------------------------------------------


 Maximum index for augmentation-charges         5632 (set IRDMAX)


--------------------------------------------------------------------------------------------------------


 First call to EWALD:  gamma=   0.139
 Maximum number of real-space cells 3x 3x 3
 Maximum number of reciprocal cells 3x 3x 3

    FEWALD:  cpu time    0.0027: real time    0.0027


--------------------------------------- Iteration      1(   1)  ---------------------------------------


    POTLOK:  cpu time    0.5861: real time    0.5949
    SETDIJ:  cpu time    0.0277: real time    0.0277
     EDDAV:  cpu time   58.6062: real time   58.6119
 BZINTS: Fermi energy:    2.096010;  352.000000 electrons
         Band energy:-0.746539E+03;  BLOECHL correction:    0.000000
       DOS:  cpu time    0.0545: real time    0.0545
    CHARGE:  cpu time    1.2289: real time    1.2290
    MIXING:  cpu time    0.0262: real time    0.0262
    --------------------------------------------
      LOOP:  cpu time   60.5297: real time   60.5442

 eigenvalue-minimisations  : 10360
 total energy-change (2. order) :-0.1199668E+03  (-0.2562536E-06)
 number of electron     352.0000369 magnetization 
 augmentation part      -23.1242107 magnetization 

 Broyden mixing:
  rms(total) = 0.65065E-03    rms(broyden)= 0.65062E-03
  rms(prec ) = 0.77117E-03
  weight for this iteration     100.00

 Free energy of the ion-electron system (eV)
  ---------------------------------------------------
  alpha Z        PSCENC =       226.93689336
  Ewald energy   TEWEN  =    -13913.39301505
  -Hartree energ DENC   =     -6048.91818095
  -exchange      EXHF   =         0.00000000
  -V(xc)+E(xc)   XCENC  =     -1392.25923652
  PAW double counting   =     22651.61010222   -20509.12802786
  entropy T*S    EENTRO =         0.00000000
  eigenvalues    EBANDS =      -746.53908090
  atomic energy  EATOM  =     19611.72375700
  Solvation  Ediel_sol  =         0.00000000
  ---------------------------------------------------
  free energy    TOTEN  =      -119.96678871 eV

  energy without entropy =     -119.96678871  energy(sigma->0) =     -119.96678871


--------------------------------------------------------------------------------------------------------




--------------------------------------- Iteration      1(   2)  ---------------------------------------


    POTLOK:  cpu time    0.5635: real time    0.5638
    SETDIJ:  cpu time    0.0536: real time    0.0536
     EDDAV:  cpu time   50.5606: real time   50.5654
 BZINTS: Fermi energy:    2.095945;  352.000000 electrons
         Band energy:-0.746536E+03;  BLOECHL correction:    0.000000
       DOS:  cpu time    0.0605: real time    0.0605
    --------------------------------------------
      LOOP:  cpu time   51.2382: real time   51.2433

 eigenvalue-minimisations  :  8216
 total energy-change (2. order) : 0.2278466E-07  (-0.1125625E-06)
 number of electron     352.0000369 magnetization 
 augmentation part      -23.1242107 magnetization 

 Free energy of the ion-electron system (eV)
  ---------------------------------------------------
  alpha Z        PSCENC =       226.93689336
  Ewald energy   TEWEN  =    -13913.39301505
  -Hartree energ DENC   =     -6048.92107821
  -exchange      EXHF   =         0.00000000
  -V(xc)+E(xc)   XCENC  =     -1392.25872382
  PAW double counting   =     22651.17529913   -20508.69403759
  entropy T*S    EENTRO =         0.00000000
  eigenvalues    EBANDS =      -746.53588351
  atomic energy  EATOM  =     19611.72375700
  Solvation  Ediel_sol  =         0.00000000
  ---------------------------------------------------
  free energy    TOTEN  =      -119.96678869 eV

  energy without entropy =     -119.96678869  energy(sigma->0) =     -119.96678869


--------------------------------------------------------------------------------------------------------




 average (electrostatic) potential at core
  the test charge radii are     1.1249  1.4024  1.1875
  (the norm of the test charge is              1.0000)
       1 -75.0260       2 -75.1498       3 -74.9682       4 -74.9689       5 -75.0277
       6 -75.0235       7 -75.1505       8 -75.0229       9 -65.4951      10 -65.4388
      11 -65.4711      12 -65.4949      13 -65.4387      14 -65.4949      15 -65.4965
      16 -65.4684      17 -93.0454      18 -92.9710      19 -93.1532      20 -92.9733
      21 -93.0576      22 -93.1463      23 -93.0509      24 -93.0387      25 -93.3081
      26 -93.2957      27 -93.1890      28 -93.2749      29 -93.2894      30 -93.1987
      31 -93.2871      32 -93.3012      33 -92.9725      34 -93.1518      35 -92.9695
      36 -93.0442      37 -93.0455      38 -93.0624      39 -93.1520      40 -93.0494
      41 -93.2775      42 -93.1869      43 -93.2866      44 -93.3075      45 -93.3045
      46 -93.2937      47 -93.1915      48 -93.2931
 
 
 
 E-fermi :   2.0959     XC(G=0):  -7.8223     alpha+bet : -7.7999


 k-point     1 :       0.0000    0.0000    0.0000
  band No.  band energies     occupation 
      1     -10.8145      2.00000
      2     -10.6835      2.00000
      3     -10.6373      2.00000
      4     -10.5022      2.00000
      5     -10.4514      2.00000
      6     -10.2252      2.00000
      7     -10.1907      2.00000
      8     -10.0105      2.00000
      9      -9.8594      2.00000
     10      -9.8501      2.00000
     11      -9.8364      2.00000
     12      -9.8143      2.00000
     13      -9.8083      2.00000
     14      -9.7773      2.00000
     15      -9.7744      2.00000
     16      -9.7065      2.00000
     17      -9.6959      2.00000
     18      -9.6787      2.00000
     19      -9.6758      2.00000
     20      -9.6749      2.00000
     21      -9.6496      2.00000
     22      -9.6255      2.00000
     23      -9.6202      2.00000
     24      -9.5935      2.00000
     25      -9.5811      2.00000
     26      -9.5720      2.00000
     27      -9.5563      2.00000
     28      -9.5288      2.00000
     29      -9.5217      2.00000
     30      -9.5172      2.00000
     31      -9.5106      2.00000
     32      -9.4781      2.00000
     33      -8.1854      2.00000
     34      -8.0877      2.00000
     35      -8.0749      2.00000
     36      -7.8466      2.00000
     37      -7.8211      2.00000
     38      -7.6134      2.00000
     39      -7.5971      2.00000
     40      -7.5952      2.00000
     41      -1.7916      2.00000
     42      -1.7327      2.00000
     43      -1.6841      2.00000
     44      -1.6757      2.00000
     45      -1.6247      2.00000
     46      -1.5567      2.00000
     47      -1.4968      2.00000
     48      -1.4418      2.00000
     49      -1.4389      2.00000
     50      -1.4038      2.00000
     51      -1.4005      2.00000
     52      -1.3607      2.00000
     53      -1.3260      2.00000
     54      -1.2897      2.00000
     55      -1.2829      2.00000
     56      -1.2470      2.00000
     57      -1.2012      2.00000
     58      -1.1963      2.00000
     59      -1.1238      2.00000
     60      -1.0755      2.00000
     61      -1.0717      2.00000
     62      -1.0310      2.00000
     63      -0.9940      2.00000
     64      -0.9871      2.00000
     65      -0.9798      2.00000
     66      -0.9679      2.00000
     67      -0.9521      2.00000
     68      -0.9496      2.00000
     69      -0.9291      2.00000
     70      -0.8907      2.00000
     71      -0.8867      2.00000
     72      -0.8824      2.00000
     73      -0.8474      2.00000
     74      -0.8200      2.00000
     75      -0.8160      2.00000
     76      -0.7846      2.00000
     77      -0.7804      2.00000
     78      -0.7714      2.00000
     79      -0.7543      2.00000
     80      -0.7053      2.00000
     81      -0.6730      2.00000
     82      -0.6620      2.00000
     83      -0.6256      2.00000
     84      -0.6115      2.00000
     85      -0.6006      2.00000
     86      -0.5813      2.00000
     87      -0.5498      2.00000
     88      -0.5209      2.00000
     89      -0.5088      2.00000
     90      -0.4748      2.00000
     91      -0.4460      2.00000
     92      -0.4362      2.00000
     93      -0.4227      2.00000
     94      -0.3796      2.00000
     95      -0.3672      2.00000
     96      -0.3387      2.00000
     97      -0.3220      2.00000
     98      -0.3139      2.00000
     99      -0.2898      2.00000
    100      -0.2853      2.00000
    101      -0.2530      2.00000
    102      -0.2342      2.00000
    103      -0.2291      2.00000
    104      -0.1969      2.00000
    105      -0.1735      2.00000
    106      -0.1685      2.00000
    107      -0.1423      2.00000
    108      -0.1201      2.00000
    109      -0.0916      2.00000
    110      -0.0807      2.00000
    111      -0.0270      2.00000
    112      -0.0087      2.00000
    113       0.1085      2.00000
    114       0.1571      2.00000
    115       0.1991      2.00000
    116       0.2074      2.00000
    117       0.2117      2.00000
    118       0.2395      2.00000
    119       0.2643      2.00000
    120       0.2752      2.00000
    121       0.2815      2.00000
    122       0.3211      2.00000
    123       0.3865      2.00000
    124       0.4257      2.00000
    125       0.4323      2.00000
    126       0.4431      2.00000
    127       0.5132      2.00000
    128       0.5460      2.00000
    129       0.5514      2.00000
    130       0.5555      2.00000
    131       0.5676      2.00000
    132       0.5803      2.00000
    133       0.6175      2.00000
    134       0.6717      2.00000
    135       0.7241      2.00000
    136       0.7391      2.00000
    137       0.7454      2.00000
    138       0.7464      2.00000
    139       0.7591      2.00000
    140       0.8114      2.00000
    141       0.8125      2.00000
    142       0.8278      2.00000
    143       0.8511      2.00000
    144       0.8702      2.00000
    145       0.8782      2.00000
    146       0.9189      2.00000
    147       0.9701      2.00000
    148       0.9983      2.00000
    149       1.0231      2.00000
    150       1.0578      2.00000
    151       1.0960      2.00000
    152       1.1224      2.00000
    153       1.1342      2.00000
    154       1.1838      2.00000
    155       1.1989      2.00000
    156       1.2050      2.00000
    157       1.2281      2.00000
    158       1.2385      2.00000
    159       1.2756      2.00000
    160       1.3437      2.00000
    161       1.3906      2.00000
    162       1.4339      2.00000
    163       1.5006      2.00000
    164       1.5294      2.00000
    165       1.5755      2.00000
    166       1.5896      2.00000
    167       1.6131      2.00000
    168       1.6386      2.00000
    169       1.7960      2.00000
    170       1.7997      2.00000
    171       1.9149      2.00000
    172       1.9308      2.00000
    173       2.0388      2.00000
    174       2.0520      2.00000
    175       2.0666      2.00000
    176       2.0959      2.00000
    177       3.8733      0.00000
    178       4.0354      0.00000
    179       4.0466      0.00000
    180       4.1587      0.00000
    181       4.1963      0.00000
    182       4.3784      0.00000
    183       4.3797      0.00000
    184       4.4271      0.00000
    185       4.4535      0.00000
    186       4.4710      0.00000
    187       4.5482      0.00000
    188       4.5648      0.00000
    189       4.5910      0.00000
    190       4.5950      0.00000
    191       4.6348      0.00000
    192       4.6438      0.00000
    193       4.6720      0.00000
    194       4.7351      0.00000
    195       4.7628      0.00000
    196       4.7686      0.00000
    197       4.8354      0.00000
    198       4.8650      0.00000
    199       4.8710      0.00000
    200       4.9852      0.00000
    201       5.1110      0.00000
    202       5.3034      0.00000
    203       5.6133      0.00000
    204       5.7529      0.00000
    205       5.9584      0.00000
    206       5.9793      0.00000
    207       5.9915      0.00000
    208       6.0245      0.00000
    209       7.1863      0.00000
    210       7.2903      0.00000
    211       7.3029      0.00000

 k-point     2 :       0.2500   -0.0000    0.0000
  band No.  band energies     occupation 
      1     -10.7993      2.00000
      2     -10.6894      2.00000
      3     -10.6582      2.00000
      4     -10.4994      2.00000
      5     -10.4478      2.00000
      6     -10.2246      2.00000
      7     -10.1788      2.00000
      8     -10.0213      2.00000
      9      -9.8646      2.00000
     10      -9.8603      2.00000
     11      -9.8395      2.00000
     12      -9.8156      2.00000
     13      -9.8108      2.00000
     14      -9.7665      2.00000
     15      -9.7551      2.00000
     16      -9.7111      2.00000
     17      -9.6966      2.00000
     18      -9.6836      2.00000
     19      -9.6646      2.00000
     20      -9.6622      2.00000
     21      -9.6576      2.00000
     22      -9.6279      2.00000
     23      -9.6134      2.00000
     24      -9.5999      2.00000
     25      -9.5763      2.00000
     26      -9.5751      2.00000
     27      -9.5509      2.00000
     28      -9.5340      2.00000
     29      -9.5248      2.00000
     30      -9.5185      2.00000
     31      -9.5086      2.00000
     32      -9.4841      2.00000
     33      -8.1907      2.00000
     34      -8.0843      2.00000
     35      -8.0748      2.00000
     36      -7.8451      2.00000
     37      -7.8220      2.00000
     38      -7.6455      2.00000
     39      -7.5935      2.00000
     40      -7.5669      2.00000
     41      -1.7692      2.00000
     42      -1.7160      2.00000
     43      -1.6849      2.00000
     44      -1.6609      2.00000
     45      -1.6187      2.00000
     46      -1.5784      2.00000
     47      -1.5282      2.00000
     48      -1.5120      2.00000
     49      -1.4602      2.00000
     50      -1.4164      2.00000
     51      -1.3626      2.00000
     52      -1.3487      2.00000
     53      -1.3176      2.00000
     54      -1.2858      2.00000
     55      -1.2669      2.00000
     56      -1.2396      2.00000
     57      -1.1942      2.00000
     58      -1.1683      2.00000
     59      -1.1450      2.00000
     60      -1.0952      2.00000
     61      -1.0849      2.00000
     62      -1.0498      2.00000
     63      -1.0150      2.00000
     64      -1.0025      2.00000
     65      -0.9843      2.00000
     66      -0.9670      2.00000
     67      -0.9480      2.00000
     68      -0.9329      2.00000
     69      -0.9098      2.00000
     70      -0.9013      2.00000
     71      -0.8809      2.00000
     72      -0.8721      2.00000
     73      -0.8495      2.00000
     74      -0.8391      2.00000
     75      -0.8036      2.00000
     76      -0.7832      2.00000
     77      -0.7805      2.00000
     78      -0.7754      2.00000
     79      -0.7328      2.00000
     80      -0.7212      2.00000
     81      -0.6756      2.00000
     82      -0.6471      2.00000
     83      -0.6233      2.00000
     84      -0.6162      2.00000
     85      -0.6019      2.00000
     86      -0.5579      2.00000
     87      -0.5500      2.00000
     88      -0.5226      2.00000
     89      -0.4749      2.00000
     90      -0.4629      2.00000
     91      -0.4443      2.00000
     92      -0.4343      2.00000
     93      -0.4065      2.00000
     94      -0.3804      2.00000
     95      -0.3672      2.00000
     96      -0.3516      2.00000
     97      -0.3417      2.00000
     98      -0.3284      2.00000
     99      -0.3046      2.00000
    100      -0.2808      2.00000
    101      -0.2685      2.00000
    102      -0.2501      2.00000
    103      -0.1913      2.00000
    104      -0.1876      2.00000
    105      -0.1774      2.00000
    106      -0.1437      2.00000
    107      -0.1254      2.00000
    108      -0.1218      2.00000
    109      -0.1126      2.00000
    110      -0.0970      2.00000
    111      -0.0636      2.00000
    112      -0.0112      2.00000
    113       0.1137      2.00000
    114       0.1410      2.00000
    115       0.1629      2.00000
    116       0.1784      2.00000
    117       0.2097      2.00000
    118       0.2583      2.00000
    119       0.2773      2.00000
    120       0.2948      2.00000
    121       0.3135      2.00000
    122       0.3677      2.00000
    123       0.3805      2.00000
    124       0.3858      2.00000
    125       0.4455      2.00000
    126       0.4808      2.00000
    127       0.5028      2.00000
    128       0.5379      2.00000
    129       0.5575      2.00000
    130       0.5853      2.00000
    131       0.5978      2.00000
    132       0.6203      2.00000
    133       0.6314      2.00000
    134       0.6577      2.00000
    135       0.6840      2.00000
    136       0.7179      2.00000
    137       0.7303      2.00000
    138       0.7500      2.00000
    139       0.7877      2.00000
    140       0.7932      2.00000
    141       0.8059      2.00000
    142       0.8453      2.00000
    143       0.8486      2.00000
    144       0.8652      2.00000
    145       0.8951      2.00000
    146       0.9296      2.00000
    147       1.0035      2.00000
    148       1.0192      2.00000
    149       1.0226      2.00000
    150       1.0419      2.00000
    151       1.0522      2.00000
    152       1.1145      2.00000
    153       1.1594      2.00000
    154       1.1807      2.00000
    155       1.1878      2.00000
    156       1.1906      2.00000
    157       1.2200      2.00000
    158       1.2461      2.00000
    159       1.2790      2.00000
    160       1.3337      2.00000
    161       1.3900      2.00000
    162       1.4484      2.00000
    163       1.5102      2.00000
    164       1.5215      2.00000
    165       1.5652      2.00000
    166       1.5916      2.00000
    167       1.6395      2.00000
    168       1.6618      2.00000
    169       1.7897      2.00000
    170       1.8039      2.00000
    171       1.8916      2.00000
    172       1.9164      2.00000
    173       2.0088      2.00000
    174       2.0142      2.00000
    175       2.0450      2.00000
    176       2.0564      2.00000
    177       3.9341      0.00000
    178       4.0251      0.00000
    179       4.0689      0.00000
    180       4.1792      0.00000
    181       4.1990      0.00000
    182       4.3346      0.00000
    183       4.3574      0.00000
    184       4.4273      0.00000
    185       4.4571      0.00000
    186       4.4847      0.00000
    187       4.5012      0.00000
    188       4.5396      0.00000
    189       4.6090      0.00000
    190       4.6177      0.00000
    191       4.6348      0.00000
    192       4.6565      0.00000
    193       4.6823      0.00000
    194       4.6891      0.00000
    195       4.7307      0.00000
    196       4.7949      0.00000
    197       4.8162      0.00000
    198       4.8626      0.00000
    199       4.8931      0.00000
    200       4.9646      0.00000
    201       5.2386      0.00000
    202       5.3886      0.00000
    203       5.6242      0.00000
    204       5.7656      0.00000
    205       5.8538      0.00000
    206       5.8724      0.00000
    207       5.9954      0.00000
    208       6.0078      0.00000
    209       7.2996      0.00000
    210       7.3333      0.00000
    211       7.4010      0.00000

 k-point     3 :       0.5000   -0.0000    0.0000
  band No.  band energies     occupation 
      1     -10.7747      2.00000
      2     -10.7148      2.00000
      3     -10.6673      2.00000
      4     -10.4977      2.00000
      5     -10.4445      2.00000
      6     -10.2251      2.00000
      7     -10.1654      2.00000
      8     -10.0315      2.00000
      9      -9.8701      2.00000
     10      -9.8683      2.00000
     11      -9.8421      2.00000
     12      -9.8161      2.00000
     13      -9.8139      2.00000
     14      -9.7558      2.00000
     15      -9.7369      2.00000
     16      -9.7114      2.00000
     17      -9.7052      2.00000
     18      -9.6777      2.00000
     19      -9.6695      2.00000
     20      -9.6631      2.00000
     21      -9.6398      2.00000
     22      -9.6355      2.00000
     23      -9.6108      2.00000
     24      -9.5876      2.00000
     25      -9.5834      2.00000
     26      -9.5805      2.00000
     27      -9.5493      2.00000
     28      -9.5425      2.00000
     29      -9.5205      2.00000
     30      -9.5197      2.00000
     31      -9.5008      2.00000
     32      -9.4977      2.00000
     33      -8.1959      2.00000
     34      -8.0824      2.00000
     35      -8.0728      2.00000
     36      -7.8442      2.00000
     37      -7.8226      2.00000
     38      -7.6626      2.00000
     39      -7.5910      2.00000
     40      -7.5526      2.00000
     41      -1.7312      2.00000
     42      -1.7129      2.00000
     43      -1.6644      2.00000
     44      -1.6431      2.00000
     45      -1.6288      2.00000
     46      -1.6094      2.00000
     47      -1.5613      2.00000
     48      -1.5385      2.00000
     49      -1.4863      2.00000
     50      -1.4152      2.00000
     51      -1.3859      2.00000
     52      -1.3499      2.00000
     53      -1.2807      2.00000
     54      -1.2772      2.00000
     55      -1.2540      2.00000
     56      -1.2199      2.00000
     57      -1.2112      2.00000
     58      -1.1556      2.00000
     59      -1.1467      2.00000
     60      -1.1260      2.00000
     61      -1.1194      2.00000
     62      -1.0676      2.00000
     63      -1.0119      2.00000
     64      -0.9847      2.00000
     65      -0.9822      2.00000
     66      -0.9572      2.00000
     67      -0.9336      2.00000
     68      -0.9271      2.00000
     69      -0.9097      2.00000
     70      -0.9054      2.00000
     71      -0.8949      2.00000
     72      -0.8715      2.00000
     73      -0.8290      2.00000
     74      -0.8223      2.00000
     75      -0.8083      2.00000
     76      -0.8013      2.00000
     77      -0.7761      2.00000
     78      -0.7733      2.00000
     79      -0.7539      2.00000
     80      -0.7339      2.00000
     81      -0.6627      2.00000
     82      -0.6394      2.00000
     83      -0.6277      2.00000
     84      -0.5995      2.00000
     85      -0.5947      2.00000
     86      -0.5648      2.00000
     87      -0.5401      2.00000
     88      -0.4807      2.00000
     89      -0.4741      2.00000
     90      -0.4698      2.00000
     91      -0.4538      2.00000
     92      -0.4347      2.00000
     93      -0.3942      2.00000
     94      -0.3904      2.00000
     95      -0.3729      2.00000
     96      -0.3523      2.00000
     97      -0.3218      2.00000
     98      -0.3174      2.00000
     99      -0.3059      2.00000
    100      -0.2971      2.00000
    101      -0.2728      2.00000
    102      -0.2704      2.00000
    103      -0.2000      2.00000
    104      -0.1720      2.00000
    105      -0.1541      2.00000
    106      -0.1426      2.00000
    107      -0.1290      2.00000
    108      -0.1270      2.00000
    109      -0.1150      2.00000
    110      -0.0853      2.00000
    111      -0.0826      2.00000
    112      -0.0148      2.00000
    113       0.0692      2.00000
    114       0.0861      2.00000
    115       0.1280      2.00000
    116       0.1712      2.00000
    117       0.2139      2.00000
    118       0.2338      2.00000
    119       0.2904      2.00000
    120       0.3243      2.00000
    121       0.3453      2.00000
    122       0.4174      2.00000
    123       0.4312      2.00000
    124       0.4523      2.00000
    125       0.4737      2.00000
    126       0.4928      2.00000
    127       0.5192      2.00000
    128       0.5443      2.00000
    129       0.5652      2.00000
    130       0.5760      2.00000
    131       0.5834      2.00000
    132       0.6050      2.00000
    133       0.6106      2.00000
    134       0.6689      2.00000
    135       0.6726      2.00000
    136       0.6811      2.00000
    137       0.7413      2.00000
    138       0.7563      2.00000
    139       0.7754      2.00000
    140       0.7912      2.00000
    141       0.7976      2.00000
    142       0.8306      2.00000
    143       0.8479      2.00000
    144       0.9011      2.00000
    145       0.9117      2.00000
    146       0.9514      2.00000
    147       0.9644      2.00000
    148       1.0016      2.00000
    149       1.0341      2.00000
    150       1.0662      2.00000
    151       1.0988      2.00000
    152       1.0998      2.00000
    153       1.1208      2.00000
    154       1.1239      2.00000
    155       1.1827      2.00000
    156       1.1967      2.00000
    157       1.2262      2.00000
    158       1.2679      2.00000
    159       1.2847      2.00000
    160       1.3123      2.00000
    161       1.4310      2.00000
    162       1.4477      2.00000
    163       1.4908      2.00000
    164       1.5105      2.00000
    165       1.6195      2.00000
    166       1.6221      2.00000
    167       1.6439      2.00000
[...]
    143       0.8846      2.00000
    144       0.8864      2.00000
    145       0.9543      2.00000
    146       0.9557      2.00000
    147       1.0487      2.00000
    148       1.0502      2.00000
    149       1.0740      2.00000
    150       1.0765      2.00000
    151       1.1091      2.00000
    152       1.1105      2.00000
    153       1.1313      2.00000
    154       1.1325      2.00000
    155       1.1984      2.00000
    156       1.1987      2.00000
    157       1.2451      2.00000
    158       1.2468      2.00000
    159       1.3001      2.00000
    160       1.3007      2.00000
    161       1.4875      2.00000
    162       1.4881      2.00000
    163       1.6145      2.00000
    164       1.6166      2.00000
    165       1.6278      2.00000
    166       1.6288      2.00000
    167       1.7169      2.00000
    168       1.7195      2.00000
    169       1.7909      2.00000
    170       1.7911      2.00000
    171       1.8718      2.00000
    172       1.8781      2.00000
    173       1.9031      2.00000
    174       1.9080      2.00000
    175       2.0208      2.00000
    176       2.0235      2.00000
    177       3.8427      0.00000
    178       3.8463      0.00000
    179       4.0265      0.00000
    180       4.0302      0.00000
    181       4.1367      0.00000
    182       4.1375      0.00000
    183       4.2880      0.00000
    184       4.2892      0.00000
    185       4.3571      0.00000
    186       4.3591      0.00000
    187       4.4615      0.00000
    188       4.4637      0.00000
    189       4.6381      0.00000
    190       4.6400      0.00000
    191       4.7128      0.00000
    192       4.7133      0.00000
    193       4.8046      0.00000
    194       4.8079      0.00000
    195       4.8551      0.00000
    196       4.8573      0.00000
    197       4.9229      0.00000
    198       4.9254      0.00000
    199       5.0492      0.00000
    200       5.0500      0.00000
    201       5.5936      0.00000
    202       5.5965      0.00000
    203       5.6333      0.00000
    204       5.6349      0.00000
    205       5.6694      0.00000
    206       5.6726      0.00000
    207       5.8243      0.00000
    208       5.8252      0.00000
    209       7.3538      0.00000
    210       7.3568      0.00000
    211       7.5270      0.00000

 k-point    36 :       0.5000    0.5000    0.5000
  band No.  band energies     occupation 
      1     -10.7388      2.00000
      2     -10.7365      2.00000
      3     -10.6099      2.00000
      4     -10.6090      2.00000
      5     -10.3542      2.00000
      6     -10.3527      2.00000
      7     -10.0856      2.00000
      8     -10.0840      2.00000
      9      -9.8764      2.00000
     10      -9.8735      2.00000
     11      -9.7845      2.00000
     12      -9.7816      2.00000
     13      -9.7583      2.00000
     14      -9.7572      2.00000
     15      -9.7177      2.00000
     16      -9.7172      2.00000
     17      -9.6948      2.00000
     18      -9.6930      2.00000
     19      -9.6707      2.00000
     20      -9.6682      2.00000
     21      -9.6653      2.00000
     22      -9.6638      2.00000
     23      -9.6023      2.00000
     24      -9.6017      2.00000
     25      -9.5808      2.00000
     26      -9.5805      2.00000
     27      -9.5541      2.00000
     28      -9.5515      2.00000
     29      -9.5191      2.00000
     30      -9.5171      2.00000
     31      -9.5096      2.00000
     32      -9.5061      2.00000
     33      -8.1629      2.00000
     34      -8.1611      2.00000
     35      -7.9691      2.00000
     36      -7.9685      2.00000
     37      -7.7302      2.00000
     38      -7.7294      2.00000
     39      -7.5534      2.00000
     40      -7.5521      2.00000
     41      -1.7516      2.00000
     42      -1.7498      2.00000
     43      -1.6485      2.00000
     44      -1.6462      2.00000
     45      -1.6031      2.00000
     46      -1.5991      2.00000
     47      -1.5121      2.00000
     48      -1.5084      2.00000
     49      -1.4553      2.00000
     50      -1.4548      2.00000
     51      -1.4279      2.00000
     52      -1.4256      2.00000
     53      -1.3481      2.00000
     54      -1.3465      2.00000
     55      -1.2552      2.00000
     56      -1.2517      2.00000
     57      -1.2374      2.00000
     58      -1.2325      2.00000
     59      -1.1099      2.00000
     60      -1.1075      2.00000
     61      -1.0129      2.00000
     62      -1.0106      2.00000
     63      -0.9793      2.00000
     64      -0.9730      2.00000
     65      -0.9620      2.00000
     66      -0.9609      2.00000
     67      -0.9345      2.00000
     68      -0.9313      2.00000
     69      -0.8834      2.00000
     70      -0.8785      2.00000
     71      -0.8503      2.00000
     72      -0.8468      2.00000
     73      -0.8340      2.00000
     74      -0.8326      2.00000
     75      -0.8085      2.00000
     76      -0.8076      2.00000
     77      -0.7998      2.00000
     78      -0.7941      2.00000
     79      -0.7112      2.00000
     80      -0.7101      2.00000
     81      -0.6619      2.00000
     82      -0.6601      2.00000
     83      -0.5950      2.00000
     84      -0.5904      2.00000
     85      -0.5581      2.00000
     86      -0.5573      2.00000
     87      -0.5182      2.00000
     88      -0.5169      2.00000
     89      -0.4829      2.00000
     90      -0.4819      2.00000
     91      -0.4437      2.00000
     92      -0.4428      2.00000
     93      -0.3683      2.00000
     94      -0.3668      2.00000
     95      -0.3501      2.00000
     96      -0.3490      2.00000
     97      -0.3237      2.00000
     98      -0.3222      2.00000
     99      -0.2780      2.00000
    100      -0.2775      2.00000
    101      -0.2752      2.00000
    102      -0.2720      2.00000
    103      -0.2225      2.00000
    104      -0.2201      2.00000
    105      -0.1780      2.00000
    106      -0.1765      2.00000
    107      -0.1504      2.00000
    108      -0.1470      2.00000
    109      -0.1088      2.00000
    110      -0.1081      2.00000
    111      -0.0474      2.00000
    112      -0.0450      2.00000
    113       0.0670      2.00000
    114       0.0672      2.00000
    115       0.1759      2.00000
    116       0.1777      2.00000
    117       0.2622      2.00000
    118       0.2635      2.00000
    119       0.3171      2.00000
    120       0.3197      2.00000
    121       0.3960      2.00000
    122       0.3980      2.00000
    123       0.3982      2.00000
    124       0.4005      2.00000
    125       0.4491      2.00000
    126       0.4513      2.00000
    127       0.4829      2.00000
    128       0.4862      2.00000
    129       0.5437      2.00000
    130       0.5470      2.00000
    131       0.5824      2.00000
    132       0.5834      2.00000
    133       0.6045      2.00000
    134       0.6069      2.00000
    135       0.6363      2.00000
    136       0.6367      2.00000
    137       0.7035      2.00000
    138       0.7057      2.00000
    139       0.7330      2.00000
    140       0.7345      2.00000
    141       0.7703      2.00000
    142       0.7716      2.00000
    143       0.9101      2.00000
    144       0.9128      2.00000
    145       0.9422      2.00000
    146       0.9433      2.00000
    147       1.0667      2.00000
    148       1.0690      2.00000
    149       1.0865      2.00000
    150       1.0892      2.00000
    151       1.1086      2.00000
    152       1.1098      2.00000
    153       1.1238      2.00000
    154       1.1247      2.00000
    155       1.2089      2.00000
    156       1.2092      2.00000
    157       1.2399      2.00000
    158       1.2416      2.00000
    159       1.3031      2.00000
    160       1.3036      2.00000
    161       1.5196      2.00000
    162       1.5204      2.00000
    163       1.6176      2.00000
    164       1.6202      2.00000
    165       1.6235      2.00000
    166       1.6245      2.00000
    167       1.7339      2.00000
    168       1.7365      2.00000
    169       1.8092      2.00000
    170       1.8107      2.00000
    171       1.8746      2.00000
    172       1.8820      2.00000
    173       1.8987      2.00000
    174       1.9032      2.00000
    175       2.0588      2.00000
    176       2.0622      2.00000
    177       3.7428      0.00000
    178       3.7464      0.00000
    179       3.9489      0.00000
    180       3.9522      0.00000
    181       4.0761      0.00000
    182       4.0771      0.00000
    183       4.2621      0.00000
    184       4.2624      0.00000
    185       4.3511      0.00000
    186       4.3524      0.00000
    187       4.4581      0.00000
    188       4.4601      0.00000
    189       4.6527      0.00000
    190       4.6550      0.00000
    191       4.7381      0.00000
    192       4.7389      0.00000
    193       4.8539      0.00000
    194       4.8570      0.00000
    195       4.8863      0.00000
    196       4.8866      0.00000
    197       4.9898      0.00000
    198       4.9902      0.00000
    199       5.0644      0.00000
    200       5.0679      0.00000
    201       5.5779      0.00000
    202       5.5813      0.00000
    203       5.6063      0.00000
    204       5.6088      0.00000
    205       5.6375      0.00000
    206       5.6407      0.00000
    207       5.8375      0.00000
    208       5.8388      0.00000
    209       7.2718      0.00000
    210       7.2747      0.00000
    211       7.5401      0.00000


--------------------------------------------------------------------------------------------------------


 soft charge-density along one line, spin component           1
         0         1         2         3         4         5         6         7         8         9
 total charge-density along one line
 
 pseudopotential strength for first ion, spin component:           1
 -6.437  -0.000  -0.001   0.001   0.001  -6.573  -0.000  -0.001
 -0.000  -6.440   0.001   0.000  -0.001  -0.000  -6.575   0.001
 -0.001   0.001  -6.427  -0.000  -0.005  -0.001   0.001  -6.563
  0.001   0.000  -0.000  -6.432  -0.000   0.001   0.000  -0.000
  0.001  -0.001  -0.005  -0.000  -6.431   0.001  -0.001  -0.005
 -6.573  -0.000  -0.001   0.001   0.001  -6.677  -0.000  -0.001
 -0.000  -6.575   0.001   0.000  -0.001  -0.000  -6.680   0.001
 -0.001   0.001  -6.563  -0.000  -0.005  -0.001   0.001  -6.668
  0.001   0.000  -0.000  -6.568  -0.000   0.001   0.000  -0.000
  0.001  -0.001  -0.005  -0.000  -6.566   0.001  -0.001  -0.005
  0.000   0.001   0.001   0.000  -0.001   0.000   0.001   0.001
  0.000   0.001   0.002   0.001  -0.001   0.000   0.001   0.002
 -0.002  -0.006  -0.004  -0.000  -0.007  -0.002  -0.006  -0.004
 -0.000   0.006  -0.007  -0.001   0.000  -0.000   0.006  -0.007
  0.006  -0.000   0.001  -0.006  -0.001   0.006  -0.000   0.001
 -0.002  -0.007  -0.005  -0.000  -0.009  -0.002  -0.007  -0.005
 -0.000   0.008  -0.009  -0.002   0.000  -0.000   0.007  -0.008
  0.008  -0.000   0.001  -0.007  -0.002   0.007  -0.000   0.001
 total augmentation occupancy for first ion, spin component:           1
  2.297  -0.002  -0.065   0.006   0.138  -0.298  -0.002   0.064  -0.012  -0.122  -0.061   0.013  -0.010   0.000  -0.043  -0.000
 -0.002   2.295   0.070   0.005  -0.106  -0.002  -0.319  -0.070  -0.008   0.106  -0.137   0.023   0.026  -0.067  -0.001  -0.004
 -0.065   0.070   4.257   0.007  -0.180   0.064  -0.070  -2.096  -0.011   0.163  -0.206   0.034  -0.122  -0.121   0.019   0.005
  0.006   0.005   0.007   2.276   0.055  -0.012  -0.008  -0.011  -0.297  -0.054  -0.063   0.014  -0.004   0.001   0.019   0.000
  0.138  -0.106  -0.180   0.055   3.897  -0.122   0.106   0.163  -0.054  -1.742  -0.083   0.005  -0.184   0.006  -0.011   0.007
 -0.298  -0.002   0.064  -0.012  -0.122   0.283   0.004  -0.063   0.016   0.108   0.055  -0.014   0.010   0.000   0.031  -0.001
 -0.002  -0.319  -0.070  -0.008   0.106   0.004   0.325   0.069   0.011  -0.105   0.125  -0.026  -0.017   0.051   0.001   0.001
  0.064  -0.070  -2.096  -0.011   0.163  -0.063   0.069   1.936   0.014  -0.148   0.179  -0.034   0.110   0.113  -0.017  -0.007
 -0.012  -0.008  -0.011  -0.297  -0.054   0.016   0.011   0.014   0.300   0.052   0.054  -0.013   0.003   0.001  -0.012  -0.000
 -0.122   0.106   0.163  -0.054  -1.742   0.108  -0.105  -0.148   0.052   1.587   0.076  -0.011   0.167  -0.004   0.012  -0.011
 -0.061  -0.137  -0.206  -0.063  -0.083   0.055   0.125   0.179   0.054   0.076   1.438  -0.307  -0.048   0.041   0.012   0.005
  0.013   0.023   0.034   0.014   0.005  -0.014  -0.026  -0.034  -0.013  -0.011  -0.307   0.070   0.011  -0.008  -0.003  -0.001
 -0.010   0.026  -0.122  -0.004  -0.184   0.010  -0.017   0.110   0.003   0.167  -0.048   0.011   0.078   0.009   0.004  -0.005
  0.000  -0.067  -0.121   0.001   0.006   0.000   0.051   0.113   0.001  -0.004   0.041  -0.008   0.009   0.102   0.003  -0.001
 -0.043  -0.001   0.019   0.019  -0.011   0.031   0.001  -0.017  -0.012   0.012   0.012  -0.003   0.004   0.003   0.088  -0.000
 -0.000  -0.004   0.005   0.000   0.007  -0.001   0.001  -0.007  -0.000  -0.011   0.005  -0.001  -0.005  -0.001  -0.000   0.000
  0.000   0.006   0.003  -0.001   0.000  -0.000  -0.003  -0.007  -0.000  -0.000  -0.004   0.001  -0.001  -0.007  -0.000   0.000
  0.005   0.000  -0.001  -0.004   0.000  -0.002  -0.000   0.001   0.001  -0.001  -0.001   0.000  -0.000  -0.000  -0.006   0.000


------------------------ aborting loop because EDIFF is reached ----------------------------------------


 


 total charge     
 
# of ion       s       p       d       tot
------------------------------------------
    1        0.241   0.152   9.320   9.713
    2        0.253   0.158   9.312   9.723
    3        0.239   0.147   9.323   9.709
    4        0.238   0.147   9.323   9.708
    5        0.241   0.152   9.320   9.713
    6        0.241   0.152   9.320   9.713
    7        0.252   0.158   9.313   9.723
    8        0.241   0.151   9.320   9.713
    9        1.834   1.401   0.138   3.373
   10        1.833   1.401   0.135   3.369
   11        1.835   1.398   0.139   3.372
   12        1.834   1.401   0.138   3.373
   13        1.833   1.401   0.136   3.370
   14        1.834   1.401   0.138   3.373
   15        1.834   1.401   0.138   3.374
   16        1.835   1.398   0.139   3.372
   17        1.516   2.743   0.015   4.274
   18        1.513   2.748   0.016   4.277
   19        1.517   2.746   0.013   4.276
   20        1.513   2.748   0.016   4.277
   21        1.514   2.743   0.015   4.273
   22        1.518   2.745   0.012   4.275
   23        1.515   2.743   0.015   4.272
   24        1.516   2.744   0.015   4.274
   25        1.519   2.742   0.012   4.272
   26        1.518   2.742   0.013   4.273
   27        1.514   2.742   0.017   4.274
   28        1.518   2.743   0.012   4.273
   29        1.518   2.742   0.011   4.271
   30        1.514   2.742   0.017   4.274
   31        1.518   2.742   0.011   4.271
   32        1.518   2.742   0.012   4.272
   33        1.513   2.748   0.016   4.277
   34        1.517   2.745   0.013   4.275
   35        1.513   2.748   0.016   4.277
   36        1.516   2.743   0.015   4.274
   37        1.516   2.743   0.015   4.274
   38        1.514   2.743   0.015   4.272
   39        1.517   2.746   0.013   4.276
   40        1.515   2.743   0.015   4.272
   41        1.518   2.743   0.012   4.273
   42        1.514   2.742   0.017   4.274
   43        1.518   2.742   0.013   4.273
   44        1.519   2.742   0.012   4.272
   45        1.519   2.742   0.012   4.272
   46        1.518   2.742   0.011   4.271
   47        1.514   2.742   0.017   4.274
   48        1.518   2.742   0.011   4.271
--------------------------------------------------
tot         65.136 100.214  76.095 241.445
 


--------------------------------------------------------------------------------------------------------



  FREE ENERGIE OF THE ION-ELECTRON SYSTEM (eV)
  ---------------------------------------------------
  free  energy   TOTEN  =      -119.96678869 eV

  energy  without entropy=     -119.96678869  energy(sigma->0) =     -119.96678869
 


--------------------------------------------------------------------------------------------------------




--------------------------------------------------------------------------------------------------------


 writing wavefunctions
     LOOP+:  cpu time  116.6311: real time  116.6866
    4ORBIT:  cpu time    0.0000: real time    0.0000
 


 total charge     
 
# of ion       s       p       d       tot
------------------------------------------
    1        0.241   0.152   9.320   9.713
    2        0.253   0.158   9.312   9.723
    3        0.239   0.147   9.323   9.709
    4        0.238   0.147   9.323   9.708
    5        0.241   0.152   9.320   9.713
    6        0.241   0.152   9.320   9.713
    7        0.252   0.158   9.313   9.723
    8        0.241   0.151   9.320   9.713
    9        1.834   1.401   0.138   3.373
   10        1.833   1.401   0.135   3.369
   11        1.835   1.398   0.139   3.372
   12        1.834   1.401   0.138   3.373
   13        1.833   1.401   0.136   3.370
   14        1.834   1.401   0.138   3.373
   15        1.834   1.401   0.138   3.374
   16        1.835   1.398   0.139   3.372
   17        1.516   2.743   0.015   4.274
   18        1.513   2.748   0.016   4.277
   19        1.517   2.746   0.013   4.276
   20        1.513   2.748   0.016   4.277
   21        1.514   2.743   0.015   4.273
   22        1.518   2.745   0.012   4.275
   23        1.515   2.743   0.015   4.272
   24        1.516   2.744   0.015   4.274
   25        1.519   2.742   0.012   4.272
   26        1.518   2.742   0.013   4.273
   27        1.514   2.742   0.017   4.274
   28        1.518   2.743   0.012   4.273
   29        1.518   2.742   0.011   4.271
   30        1.514   2.742   0.017   4.274
   31        1.518   2.742   0.011   4.271
   32        1.518   2.742   0.012   4.272
   33        1.513   2.748   0.016   4.277
   34        1.517   2.745   0.013   4.275
   35        1.513   2.748   0.016   4.277
   36        1.516   2.743   0.015   4.274
   37        1.516   2.743   0.015   4.274
   38        1.514   2.743   0.015   4.272
   39        1.517   2.746   0.013   4.276
   40        1.515   2.743   0.015   4.272
   41        1.518   2.743   0.012   4.273
   42        1.514   2.742   0.017   4.274
   43        1.518   2.742   0.013   4.273
   44        1.519   2.742   0.012   4.272
   45        1.519   2.742   0.012   4.272
   46        1.518   2.742   0.011   4.271
   47        1.514   2.742   0.017   4.274
   48        1.518   2.742   0.011   4.271
--------------------------------------------------
tot         65.136 100.214  76.095 241.445
 
 BZINTS: Fermi energy:    2.095945;  352.000000 electrons
         Band energy:-0.746536E+03;  BLOECHL correction:    0.000000

 total amount of memory used by VASP MPI-rank0  2761676. kBytes
=======================================================================

   base      :      30000. kBytes
   nonl-proj :     301348. kBytes
   fftplans  :      34720. kBytes
   grid      :      70000. kBytes
   one-center:        746. kBytes
   wavefun   :    2324862. kBytes
 
  
  
 General timing and accounting informations for this job:
 ========================================================
  
                  Total CPU time used (sec):      155.516
                            User time (sec):      150.867
                          System time (sec):        4.649
                         Elapsed time (sec):      158.119
  
                   Maximum memory used (kb):     4315644.
                   Average memory used (kb):           0.
  
                          Minor page faults:       426610
                          Major page faults:            0
                 Voluntary context switches:         2380
