 vasp.6.1.0 28Jan20 (build Jan 13 2021 21:44:47) complex                        
  
 executed on             LinuxIFC date 2021.09.12  19:37:14
 running on    9 total cores
 distrk:  each k-point on    1 cores,    9 groups
 distr:  one band on NCORE=   1 cores,    1 groups


--------------------------------------------------------------------------------------------------------


 INCAR:
 POTCAR:    PAW_PBE Ag 02Apr2005                  
 POTCAR:    PAW_PBE Bi 08Apr2002                  
 POTCAR:    PAW_PBE I 08Apr2002                   
 -----------------------------------------------------------------------------
|                                                                             |
|           W    W    AA    RRRRR   N    N  II  N    N   GGGG   !!!           |
|           W    W   A  A   R    R  NN   N  II  NN   N  G    G  !!!           |
|           W    W  A    A  R    R  N N  N  II  N N  N  G       !!!           |
|           W WW W  AAAAAA  RRRRR   N  N N  II  N  N N  G  GGG   !            |
|           WW  WW  A    A  R   R   N   NN  II  N   NN  G    G                |
|           W    W  A    A  R    R  N    N  II  N    N   GGGG   !!!           |
|                                                                             |
|     For optimal performance we recommend to set                             |
|       NCORE = 4 - approx SQRT(number of cores).                             |
|     NCORE specifies how many cores store one orbital (NPAR=cpu/NCORE).      |
|     This setting can greatly improve the performance of VASP for DFT.       |
|     The default, NCORE=1 might be grossly inefficient on modern             |
|     multi-core architectures or massively parallel machines. Do your        |
|     own testing!!!!                                                         |
|     Unfortunately you need to use the default for GW and RPA                |
|     calculations (for HF NCORE is supported but not extensively tested      |
|     yet).                                                                   |
|                                                                             |
 -----------------------------------------------------------------------------

 POTCAR:    PAW_PBE Ag 02Apr2005                  
   VRHFIN =Ag : s1 d10                                                                              
   LEXCH  = PE                                                                                      
   EATOM  =  1037.2675 eV,   76.2370 Ry                                                             
                                                                                                    
   TITEL  = PAW_PBE Ag 02Apr2005                                                                    
   LULTRA =        F    use ultrasoft PP ?                                                          
   IUNSCR =        1    unscreen: 0-lin 1-nonlin 2-no                                               
   RPACOR =    2.000    partial core radius                                                         
   POMASS =  107.868; ZVAL   =   11.000    mass and valenz                                          
   RCORE  =    2.500    outmost cutoff radius                                                       
   RWIGS  =    2.840; RWIGS  =    1.503    wigner-seitz radius (au A)                               
   ENMAX  =  249.844; ENMIN  =  187.383 eV                                                          
   ICORE  =        3    local potential                                                             
   LCOR   =        T    correct aug charges                                                         
   LPAW   =        T    paw PP                                                                      
   EAUG   =  412.496                                                                                
   DEXC   =    0.000                                                                                
   RMAX   =    2.560    core radius for proj-oper                                                   
   RAUG   =    1.300    factor for augmentation sphere                                              
   RDEP   =    2.576    radius for radial grids                                                     
   RDEPT  =    2.072    core radius for aug-charge                                                  
                                                                                                    
   Atomic configuration                                                                             
   12 entries                                                                                       
     n  l   j            E        occ.                                                              
     1  0  0.50    -25324.9161   2.0000                                                             
     2  0  0.50     -3728.5341   2.0000                                                             
     2  1  1.50     -3344.0404   6.0000                                                             
     3  0  0.50      -683.5581   2.0000                                                             
     3  1  1.50      -557.3225   6.0000                                                             
     3  2  2.50      -358.3853  10.0000                                                             
     4  0  0.50       -95.0341   2.0000                                                             
     4  1  1.50       -58.5511   6.0000                                                             
     4  2  2.50        -7.4440  10.0000                                                             
     5  0  0.50        -4.4045   1.0000                                                             
     5  1  0.50        -1.3606   0.0000                                                             
     4  3  2.50        -1.3606   0.0000                                                             
   Description                                                                                      
     l       E           TYP  RCUT    TYP  RCUT                                                     
     2     -7.4439781     23  2.400                                                                 
     2     -8.8045607     23  2.400                                                                 
     0     -4.4044681     23  2.400                                                                 
     0      1.9520038     23  2.400                                                                 
     1     -1.3605826     23  2.500                                                                 
     1     27.2116520     23  2.500                                                                 
     3     -4.0817478     23  2.400                                                                 
  local pseudopotential read in
  partial core-charges read in
  partial kinetic energy density read in
  atomic valenz-charges read in
  non local Contribution for L=           2  read in
    real space projection operators read in
  non local Contribution for L=           2  read in
    real space projection operators read in
  non local Contribution for L=           0  read in
    real space projection operators read in
  non local Contribution for L=           0  read in
    real space projection operators read in
  non local Contribution for L=           1  read in
    real space projection operators read in
  non local Contribution for L=           1  read in
    real space projection operators read in
    PAW grid and wavefunctions read in
 
   number of l-projection  operators is LMAX  =           6
   number of lm-projection operators is LMMAX =          18
 
 POTCAR:    PAW_PBE Bi 08Apr2002                  
   VRHFIN =Bi:                                                                                      
   LEXCH  = PE                                                                                      
   EATOM  =   150.8133 eV,   11.0845 Ry                                                             
                                                                                                    
   TITEL  = PAW_PBE Bi 08Apr2002                                                                    
   LULTRA =        F    use ultrasoft PP ?                                                          
   IUNSCR =        1    unscreen: 0-lin 1-nonlin 2-no                                               
   RPACOR =    2.200    partial core radius                                                         
   POMASS =  208.980; ZVAL   =    5.000    mass and valenz                                          
   RCORE  =    3.000    outmost cutoff radius                                                       
   RWIGS  =    3.090; RWIGS  =    1.635    wigner-seitz radius (au A)                               
   ENMAX  =  105.037; ENMIN  =   78.777 eV                                                          
   ICORE  =        3    local potential                                                             
   LCOR   =        T    correct aug charges                                                         
   LPAW   =        T    paw PP                                                                      
   EAUG   =  265.427                                                                                
   DEXC   =    0.000                                                                                
   RMAX   =    3.067    core radius for proj-oper                                                   
   RAUG   =    1.300    factor for augmentation sphere                                              
   RDEP   =    3.012    radius for radial grids                                                     
   RDEPT  =    2.604    core radius for aug-charge                                                  
                                                                                                    
   Atomic configuration                                                                             
   17 entries                                                                                       
     n  l   j            E        occ.                                                              
     1  0  0.50    -90639.6582   2.0000                                                             
     2  0  0.50    -16282.4667   2.0000                                                             
     2  1  1.50    -13922.8287   6.0000                                                             
     3  0  0.50     -3930.4763   2.0000                                                             
     3  1  1.50     -3256.7013   6.0000                                                             
     3  2  2.50     -2581.6169  10.0000                                                             
     4  0  0.50      -902.2614   2.0000                                                             
     4  1  1.50      -681.5915   6.0000                                                             
     4  2  2.50      -429.8249  10.0000                                                             
     4  3  3.50      -152.6004  14.0000                                                             
     5  0  0.50      -157.7156   2.0000                                                             
     5  1  1.50       -95.8054   6.0000                                                             
     5  2  2.50       -27.0806  10.0000                                                             
     6  0  0.50       -14.4732   2.0000                                                             
     6  1  1.50        -4.5702   3.0000                                                             
     6  2  2.50        -2.7212   0.0000                                                             
     5  3  2.50        -2.7212   0.0000                                                             
   Description                                                                                      
     l       E           TYP  RCUT    TYP  RCUT                                                     
     0    -14.4732299     23  3.000                                                                 
     0    -12.2452434     23  3.000                                                                 
     1     -4.5701666     23  3.000                                                                 
     1    -13.6058260     23  3.000                                                                 
     2     -2.7211652     23  3.000                                                                 
     3     -1.3605826      7  3.000                                                                 
  local pseudopotential read in
  partial core-charges read in
  partial kinetic energy density read in
  kinetic energy density of atom read in
  atomic valenz-charges read in
  non local Contribution for L=           0  read in
    real space projection operators read in
  non local Contribution for L=           0  read in
    real space projection operators read in
  non local Contribution for L=           1  read in
    real space projection operators read in
  non local Contribution for L=           1  read in
    real space projection operators read in
  non local Contribution for L=           2  read in
    real space projection operators read in
    PAW grid and wavefunctions read in
 
   number of l-projection  operators is LMAX  =           5
   number of lm-projection operators is LMMAX =          13
 
 POTCAR:    PAW_PBE I 08Apr2002                   
   VRHFIN =I : s2p5                                                                                 
   LEXCH  = PE                                                                                      
   EATOM  =   315.8678 eV,   23.2156 Ry                                                             
                                                                                                    
   TITEL  = PAW_PBE I 08Apr2002                                                                     
   LULTRA =        F    use ultrasoft PP ?                                                          
   IUNSCR =        1    unscreen: 0-lin 1-nonlin 2-no                                               
   RPACOR =    2.200    partial core radius                                                         
   POMASS =  126.904; ZVAL   =    7.000    mass and valenz                                          
   RCORE  =    2.300    outmost cutoff radius                                                       
   RWIGS  =    2.810; RWIGS  =    1.487    wigner-seitz radius (au A)                               
   ENMAX  =  175.647; ENMIN  =  131.735 eV                                                          
   ICORE  =        3    local potential                                                             
   LCOR   =        T    correct aug charges                                                         
   LPAW   =        T    paw PP                                                                      
   EAUG   =  370.139                                                                                
   DEXC   =    0.000                                                                                
   RMAX   =    2.359    core radius for proj-oper                                                   
   RAUG   =    1.300    factor for augmentation sphere                                              
   RDEP   =    2.392    radius for radial grids                                                     
   RDEPT  =    2.170    core radius for aug-charge                                                  
                                                                                                    
   Atomic configuration                                                                             
   13 entries                                                                                       
     n  l   j            E        occ.                                                              
     1  0  0.50    -32976.3739   2.0000                                                             
     2  0  0.50     -5094.5933   2.0000                                                             
     2  1  1.50     -4572.0131   6.0000                                                             
     3  0  0.50     -1028.2813   2.0000                                                             
     3  1  1.50      -859.0250   6.0000                                                             
     3  2  2.50      -605.7620  10.0000                                                             
     4  0  0.50      -180.5540   2.0000                                                             
     4  1  1.50      -127.5306   6.0000                                                             
     4  2  2.50       -50.2720  10.0000                                                             
     5  0  0.50       -17.4058   2.0000                                                             
     5  1  0.50        -7.0851   5.0000                                                             
     5  2  1.50        -7.0750   0.0000                                                             
     4  3  2.50        -7.0750   0.0000                                                             
   Description                                                                                      
     l       E           TYP  RCUT    TYP  RCUT                                                     
     0    -17.4058016     23  2.300                                                                 
     0    -18.7663842     23  2.300                                                                 
     1     -7.0850686     23  2.300                                                                 
     1     -4.2150896     23  2.300                                                                 
     2     -7.0750295     23  2.300                                                                 
     3     -1.3605826     23  2.300                                                                 
  local pseudopotential read in
  partial core-charges read in
  partial kinetic energy density read in
  atomic valenz-charges read in
  non local Contribution for L=           0  read in
    real space projection operators read in
  non local Contribution for L=           0  read in
    real space projection operators read in
  non local Contribution for L=           1  read in
    real space projection operators read in
  non local Contribution for L=           1  read in
    real space projection operators read in
  non local Contribution for L=           2  read in
    real space projection operators read in
    PAW grid and wavefunctions read in
 
   number of l-projection  operators is LMAX  =           5
   number of lm-projection operators is LMMAX =          13
 
 -----------------------------------------------------------------------------
|                                                                             |
|               ----> ADVICE to this user running VASP <----                  |
|                                                                             |
|     You have a (more or less) 'large supercell' and for larger cells it     |
|     might be more efficient to use real-space projection operators.         |
|     Therefore, try LREAL= Auto in the INCAR file.                           |
|     Mind: For very accurate calculation, you might also keep the            |
|     reciprocal projection scheme (i.e. LREAL=.FALSE.).                      |
|                                                                             |
 -----------------------------------------------------------------------------

  PAW_PBE Ag 02Apr2005                  :
 energy of atom  1       EATOM=-1037.2675
 kinetic energy error for atom=    0.0686 (will be added to EATOM!!)
  PAW_PBE Bi 08Apr2002                  :
 energy of atom  2       EATOM= -150.8133
 kinetic energy error for atom=    0.0004 (will be added to EATOM!!)
  PAW_PBE I 08Apr2002                   :
 energy of atom  3       EATOM= -315.8678
 kinetic energy error for atom=    0.0044 (will be added to EATOM!!)
 
 
 POSCAR: Generation Seed Number
  positions in direct lattice
  velocities in cartesian coordinates
 exchange correlation table for  LEXCH =        8
   RHO(1)=    0.500       N(1)  =     2000
   RHO(2)=  100.500       N(2)  =     4000
 


--------------------------------------------------------------------------------------------------------


 ion  position               nearest neighbor table
   1  0.016  0.984  1.000-  17 2.97  27 2.97  34 3.05  33 3.05  25 3.40  21 3.40
   2  0.517  0.483  0.000-  29 2.97  23 2.97  40 3.05  39 3.05  31 3.41  19 3.41
   3  0.016  0.765  0.751-  44 2.97  34 2.98  27 3.06  28 3.06  36 3.37  48 3.39
   4  0.235  0.984  0.250-  43 2.97  33 2.97  17 3.06  18 3.06  37 3.37  41 3.39
   5  0.735  0.484  0.250-  45 2.97  39 2.98  23 3.05  24 3.06  35 3.37  47 3.40
   6  0.516  0.265  0.751-  46 2.97  40 2.97  29 3.06  30 3.07  38 3.37  42 3.39
   7  0.734  0.266  0.500-  30 2.97  24 2.98  45 3.05  46 3.05  26 3.39  22 3.39
   8  0.235  0.765  0.500-  18 2.98  28 2.98  44 3.05  43 3.05  32 3.38  20 3.39
   9  0.252  0.247  0.000-  17 3.06  29 3.06  42 3.12  41 3.12  25 3.20  19 3.20
  10  0.752  0.748  0.000-  27 3.06  23 3.06  47 3.12  48 3.12  21 3.20  31 3.20
  11  0.997  0.247  0.250-  33 3.06  45 3.06  26 3.12  25 3.12  41 3.20  35 3.20
  12  0.997  0.503  0.500-  28 3.05  24 3.06  35 3.12  36 3.12  20 3.20  26 3.20
  13  0.497  0.003  0.500-  30 3.05  18 3.05  37 3.12  38 3.12  22 3.20  32 3.21
  14  0.752  0.003  0.750-  34 3.06  46 3.06  21 3.12  22 3.12  48 3.20  38 3.20
  15  0.497  0.747  0.250-  43 3.06  39 3.06  31 3.12  32 3.12  47 3.20  37 3.20
  16  0.252  0.503  0.750-  44 3.06  40 3.06  19 3.12  20 3.12  42 3.20  36 3.20
  17  0.249  0.007  0.010-   1 2.97   9 3.06   4 3.06
  18  0.256  0.999  0.490-   8 2.98  13 3.05   4 3.06
  19  0.249  0.500  0.996-  16 3.12   9 3.20   2 3.41
  20  0.250  0.499  0.505-  16 3.12  12 3.20   8 3.39
  21  0.749  1.000  0.996-  14 3.12  10 3.20   1 3.40
  22  0.749  0.999  0.504-  14 3.12  13 3.20   7 3.39
  23  0.749  0.507  0.011-   2 2.97   5 3.05  10 3.06
  24  0.756  0.499  0.489-   7 2.98  12 3.06   5 3.06
  25  1.000  0.251  0.004-  11 3.12   9 3.20   1 3.40
  26  0.001  0.251  0.496-  11 3.12  12 3.20   7 3.39
  27  0.993  0.751  0.990-   1 2.97  10 3.06   3 3.06
  28  0.002  0.744  0.511-   8 2.98  12 3.05   3 3.06
  29  0.493  0.251  0.990-   2 2.97   6 3.06   9 3.06
  30  0.501  0.244  0.511-   7 2.97  13 3.05   6 3.07
  31  0.500  0.751  0.004-  15 3.12  10 3.20   2 3.41
  32  0.501  0.750  0.496-  15 3.12  13 3.21   8 3.38
  33  0.001  0.007  0.239-   4 2.97   1 3.05  11 3.06
  34  0.993  0.998  0.761-   3 2.98   1 3.05  14 3.06
  35  0.000  0.500  0.254-  12 3.12  11 3.20   5 3.37
  36  1.000  0.500  0.746-  12 3.12  16 3.20   3 3.37
  37  0.500  1.000  0.254-  13 3.12  15 3.20   4 3.37
  38  0.500  0.000  0.746-  13 3.12  14 3.20   6 3.37
  39  0.502  0.507  0.239-   5 2.98   2 3.05  15 3.06
  40  0.493  0.498  0.762-   6 2.97   2 3.05  16 3.06
  41  0.249  0.251  0.246-   9 3.12  11 3.20   4 3.39
  42  0.249  0.250  0.754-   9 3.12  16 3.20   6 3.39
  43  0.256  0.751  0.261-   4 2.97   8 3.05  15 3.06
  44  0.249  0.743  0.739-   3 2.97   8 3.05  16 3.06
  45  0.756  0.251  0.261-   5 2.97   7 3.05  11 3.06
  46  0.749  0.243  0.739-   6 2.97   7 3.05  14 3.06
  47  0.749  0.751  0.246-  10 3.12  15 3.20   5 3.40
  48  0.749  0.750  0.754-  10 3.12  14 3.20   3 3.39
 
 -----------------------------------------------------------------------------
|                                                                             |
|           W    W    AA    RRRRR   N    N  II  N    N   GGGG   !!!           |
|           W    W   A  A   R    R  NN   N  II  NN   N  G    G  !!!           |
|           W    W  A    A  R    R  N N  N  II  N N  N  G       !!!           |
|           W WW W  AAAAAA  RRRRR   N  N N  II  N  N N  G  GGG   !            |
|           WW  WW  A    A  R   R   N   NN  II  N   NN  G    G                |
|           W    W  A    A  R    R  N    N  II  N    N   GGGG   !!!           |
|                                                                             |
|     The determination of the symmetry of your systems shows a strong        |
|     dependence on the tolerance parameter SYMPREC. This is often the        |
|     result of "noise" in the structural parameters (lattice vectors         |
|     and/or ionic positions). Set NWRITE=3 for more details.                 |
|                                                                             |
 -----------------------------------------------------------------------------

  LATTYP: Found a triclinic cell.
 ALAT       =    17.9379580105
 B/A-ratio  =     0.7071010340
 C/A-ratio  =     1.0000184056
 COS(alpha) =     0.0000114503
 COS(beta)  =     0.5000737789
 COS(gamma) =     0.7069942978
  
  Lattice vectors:
  
 A1 = (   0.0001614838,  12.6831920946, -12.6849113458)
 A2 = (   0.0011090872,  12.6839485553,   0.0011578928)
 A3 = (  12.6836889380,   0.0002543124, -12.6848814472)


Analysis of symmetry for initial positions (statically):
=====================================================================
 Subroutine PRICEL returns:
 Original cell was already a primitive cell.
 

 Routine SETGRP: Setting up the symmetry group for a 
 triclinic supercell.


 Subroutine GETGRP returns: Found  1 space group operations
 (whereof  1 operations were pure point group operations)
 out of a pool of  2 trial point group operations.


The static configuration has the point symmetry C_1 .


Analysis of symmetry for dynamics (positions and initial velocities):
=====================================================================
 Subroutine PRICEL returns:
 Original cell was already a primitive cell.
 

 Routine SETGRP: Setting up the symmetry group for a 
 triclinic supercell.


 Subroutine GETGRP returns: Found  1 space group operations
 (whereof  1 operations were pure point group operations)
 out of a pool of  2 trial point group operations.


The dynamic configuration has the point symmetry C_1 .


 Subroutine INISYM returns: Found  1 space group operations
 (whereof  1 operations are pure point group operations),
 and found     1 'primitive' translations


----------------------------------------------------------------------------------------

                                     Primitive cell                                     

  volume of cell :    2041.0778

  direct lattice vectors                    reciprocal lattice vectors
    12.684636541  0.001010773  0.001187791     0.078835528 -0.000006893 -0.000005888
     0.001109087 12.683948555  0.001157893    -0.000006282  0.078839804 -0.000004701
     0.000947603  0.000756461 12.686069239    -0.000007381 -0.000007195  0.078826624

  length of vectors
    12.684636637 12.683948657 12.686069297     0.078835528  0.078839804  0.078826625

  position of ions in fractional coordinates (direct lattice)
     0.016344417  0.983585323  0.999697213
     0.516705715  0.483033388  0.000187105
     0.016162253  0.765046378  0.750657765
     0.234555693  0.983598587  0.249729889
     0.734801637  0.483643035  0.249841679
     0.516271039  0.265090081  0.750847981
     0.734311246  0.265604795  0.500037360
     0.234955699  0.765352126  0.500409502
     0.252233463  0.247362154  0.000083056
     0.752260321  0.747576573  0.000151726
     0.997213144  0.247221300  0.250043162
     0.997009568  0.503105981  0.499900936
     0.496704277  0.003062153  0.500076307
     0.752411500  0.002594815  0.750056189
     0.497113427  0.747315980  0.249953269
     0.252337225  0.502639122  0.750367453
     0.248945084  0.006689665  0.010102618
     0.256148539  0.998711559  0.489641513
     0.248578280  0.499755104  0.995897771
     0.249500002  0.498857140  0.504578994
     0.748823637  0.999944933  0.995712224
     0.749231761  0.998504208  0.504413824
     0.749219401  0.506822644  0.010580575
     0.756366240  0.498984673  0.489291023
     0.999901473  0.250812193  0.004358160
     0.001129604  0.250520351  0.495688930
     0.992939586  0.750882668  0.990017194
     0.001609047  0.743674912  0.510587954
     0.493007854  0.250519002  0.990168221
     0.501070011  0.243603755  0.510669038
     0.499883316  0.751072859  0.004405826
     0.500758053  0.750420025  0.495747920
     0.001479987  0.006556055  0.238762132
     0.993103268  0.998256131  0.761036120
     0.000120050  0.499815780  0.254246737
     0.999835140  0.500094169  0.745687521
     0.499639304  0.999862909  0.254361418
     0.499888768  0.000171353  0.745822249
     0.501554990  0.506606816  0.238717695
     0.493079494  0.498196754  0.761670815
     0.249441636  0.250534643  0.245746536
     0.249067640  0.250372152  0.754443181
     0.256467039  0.750736145  0.261039693
     0.249110510  0.743374094  0.739442602
     0.756491054  0.250665847  0.261356293
     0.749103669  0.243398354  0.738759888
     0.749425009  0.751017932  0.245717891
     0.749123682  0.750376038  0.754414230

  ion indices of the primitive-cell ions
   primitive index   ion index
                 1           1
                 2           2
                 3           3
                 4           4
                 5           5
                 6           6
                 7           7
                 8           8
                 9           9
                10          10
                11          11
                12          12
                13          13
                14          14
                15          15
                16          16
                17          17
                18          18
                19          19
                20          20
                21          21
                22          22
                23          23
                24          24
                25          25
                26          26
                27          27
                28          28
                29          29
                30          30
                31          31
                32          32
                33          33
                34          34
                35          35
                36          36
                37          37
                38          38
                39          39
                40          40
                41          41
                42          42
                43          43
                44          44
                45          45
                46          46
                47          47
                48          48

----------------------------------------------------------------------------------------

 
 
 KPOINTS: agbii                                   

Automatic generation of k-mesh.
Space group operators:
 irot       det(A)        alpha          n_x          n_y          n_z        tau_x        tau_y        tau_z
    1     1.000000     0.000000     1.000000     0.000000     0.000000     0.000000     0.000000     0.000000
 TETIRR: Found    192 inequivalent tetrahedra from      384
 
 Subroutine IBZKPT returns following result:
 ===========================================
 
 Found     36 irreducible k-points:
 
 Following reciprocal coordinates:
            Coordinates               Weight
  0.000000  0.000000  0.000000      1.000000
  0.250000 -0.000000  0.000000      2.000000
  0.500000 -0.000000  0.000000      1.000000
  0.000000  0.250000 -0.000000      2.000000
  0.250000  0.250000 -0.000000      2.000000
  0.500000  0.250000 -0.000000      2.000000
 -0.250000  0.250000 -0.000000      2.000000
  0.000000  0.500000  0.000000      1.000000
  0.250000  0.500000  0.000000      2.000000
  0.500000  0.500000  0.000000      1.000000
 -0.000000  0.000000  0.250000      2.000000
  0.250000  0.000000  0.250000      2.000000
  0.500000  0.000000  0.250000      2.000000
 -0.250000  0.000000  0.250000      2.000000
 -0.000000  0.250000  0.250000      2.000000
  0.250000  0.250000  0.250000      2.000000
  0.500000  0.250000  0.250000      2.000000
 -0.250000  0.250000  0.250000      2.000000
 -0.000000  0.500000  0.250000      2.000000
  0.250000  0.500000  0.250000      2.000000
  0.500000  0.500000  0.250000      2.000000
 -0.250000  0.500000  0.250000      2.000000
  0.000000 -0.250000  0.250000      2.000000
  0.250000 -0.250000  0.250000      2.000000
  0.500000 -0.250000  0.250000      2.000000
 -0.250000 -0.250000  0.250000      2.000000
 -0.000000  0.000000  0.500000      1.000000
  0.250000  0.000000  0.500000      2.000000
  0.500000  0.000000  0.500000      1.000000
 -0.000000  0.250000  0.500000      2.000000
  0.250000  0.250000  0.500000      2.000000
  0.500000  0.250000  0.500000      2.000000
 -0.250000  0.250000  0.500000      2.000000
 -0.000000  0.500000  0.500000      1.000000
  0.250000  0.500000  0.500000      2.000000
  0.500000  0.500000  0.500000      1.000000
 
 Following cartesian coordinates:
            Coordinates               Weight
  0.000000  0.000000  0.000000      1.000000
  0.019709 -0.000002 -0.000001      2.000000
  0.039418 -0.000003 -0.000003      1.000000
 -0.000002  0.019710 -0.000001      2.000000
  0.019707  0.019708 -0.000003      2.000000
  0.039416  0.019707 -0.000004      2.000000
 -0.019710  0.019712  0.000000      2.000000
 -0.000003  0.039420 -0.000002      1.000000
  0.019706  0.039418 -0.000004      2.000000
  0.039415  0.039416 -0.000005      1.000000
 -0.000002 -0.000002  0.019707      2.000000
  0.019707 -0.000004  0.019705      2.000000
  0.039416 -0.000005  0.019704      2.000000
 -0.019711 -0.000000  0.019708      2.000000
 -0.000003  0.019708  0.019705      2.000000
  0.019705  0.019706  0.019704      2.000000
  0.039414  0.019705  0.019703      2.000000
 -0.019712  0.019710  0.019707      2.000000
 -0.000005  0.039418  0.019704      2.000000
  0.019704  0.039416  0.019703      2.000000
  0.039413  0.039415  0.019701      2.000000
 -0.019714  0.039420  0.019706      2.000000
 -0.000000 -0.019712  0.019708      2.000000
  0.019709 -0.019713  0.019706      2.000000
  0.039417 -0.019715  0.019705      2.000000
 -0.019709 -0.019710  0.019709      2.000000
 -0.000004 -0.000004  0.039413      1.000000
  0.019705 -0.000005  0.039412      2.000000
  0.039414 -0.000007  0.039410      1.000000
 -0.000005  0.019706  0.039412      2.000000
  0.019704  0.019705  0.039411      2.000000
  0.039413  0.019703  0.039409      2.000000
 -0.019714  0.019708  0.039414      2.000000
 -0.000007  0.039416  0.039411      1.000000
  0.019702  0.039415  0.039409      2.000000
  0.039411  0.039413  0.039408      1.000000
 


--------------------------------------------------------------------------------------------------------




 Dimension of arrays:
   k-points           NKPTS =     36   k-points in BZ     NKDIM =     36   number of bands    NBANDS=    211
   number of dos      NEDOS =   3000   number of ions     NIONS =     48
   non local maximal  LDIM  =      6   non local SUM 2l+1 LMDIM =     18
   total plane-waves  NPLWV = 125000
   max r-space proj   IRMAX =      1   max aug-charges    IRDMAX=   6033
   dimension x,y,z NGX =    50 NGY =   50 NGZ =   50
   dimension x,y,z NGXF=   100 NGYF=  100 NGZF=  100
   support grid    NGXF=   100 NGYF=  100 NGZF=  100
   ions per type =               8   8  32
   NGX,Y,Z   is equivalent  to a cutoff of   6.55,  6.55,  6.55 a.u.
   NGXF,Y,Z  is equivalent  to a cutoff of  13.11, 13.11, 13.10 a.u.

 SYSTEM =  unknown system                          
 POSCAR =  Generation Seed Number                  

 Startparameter for this run:
   NWRITE =      2    write-flag & timer
   PREC   = normal    normal or accurate (medium, high low for compatibility)
   ISTART =      1    job   : 0-new  1-cont  2-samecut
   ICHARG =      1    charge: 1-file 2-atom 10-const
   ISPIN  =      1    spin polarized calculation?
   LNONCOLLINEAR =      F non collinear calculations
   LSORBIT =      F    spin-orbit coupling
   INIWAV =      1    electr: 0-lowe 1-rand  2-diag
   LASPH  =      F    aspherical Exc in radial PAW
   METAGGA=      F    non-selfconsistent MetaGGA calc.

 Electronic Relaxation 1
   ENCUT  =  250.0 eV  18.37 Ry    4.29 a.u.  16.35 16.35 16.36*2*pi/ulx,y,z
   ENINI  =  250.0     initial cutoff
   ENAUG  =  412.5 eV  augmentation charge cutoff
   NELM   =     60;   NELMIN=  2; NELMDL=  0     # of ELM steps 
   EDIFF  = 0.1E-05   stopping-criterion for ELM
   LREAL  =      F    real-space projection
   NLSPLINE    = F    spline interpolate recip. space projectors
   LCOMPAT=      F    compatible to vasp.4.4
   GGA_COMPAT  = T    GGA compatible to vasp.4.4-vasp.4.6
   LMAXPAW     = -100 max onsite density
   LMAXMIX     =    4 max onsite mixed and CHGCAR
   VOSKOWN=      0    Vosko Wilk Nusair interpolation
   ROPT   =    0.00000   0.00000   0.00000
 Ionic relaxation
   EDIFFG = -.1E-01   stopping-criterion for IOM
   NSW    =      0    number of steps for IOM
   NBLOCK =      1;   KBLOCK =      1    inner block; outer block 
   IBRION =     -1    ionic relax: 0-MD 1-quasi-New 2-CG
   NFREE  =      0    steps in history (QN), initial steepest desc. (CG)
   ISIF   =     -1    stress and relaxation
   IWAVPR =     10    prediction:  0-non 1-charg 2-wave 3-comb
   ISYM   =      2    0-nonsym 1-usesym 2-fastsym
   LCORR  =      T    Harris-Foulkes like correction to forces

   POTIM  = 0.5000    time-step for ionic-motion
   TEIN   =    0.0    initial temperature
   TEBEG  =    0.0;   TEEND  =   0.0 temperature during run
   SMASS  =  -3.00    Nose mass-parameter (am)
   estimated Nose-frequenzy (Omega)   =  0.10E-29 period in steps = 0.13E+47 mass=  -0.368E-26a.u.
   SCALEE = 1.0000    scale energy and forces
   NPACO  =    256;   APACO  = 16.0  distance and # of slots for P.C.
   PSTRESS=    0.0 pullay stress

  Mass of Ions in am
   POMASS = 107.87208.98126.90
  Ionic Valenz
   ZVAL   =  11.00  5.00  7.00
  Atomic Wigner-Seitz radii
   RWIGS  =  -1.00 -1.00 -1.00
  virtual crystal weights 
   VCA    =   1.00  1.00  1.00
   NELECT =     352.0000    total number of electrons
   NUPDOWN=      -1.0000    fix difference up-down

 DOS related values:
   EMIN   =  10.00;   EMAX   =-10.00  energy-range for DOS
   EFERMI =   0.00
   ISMEAR =    -5;   SIGMA  =   0.20  broadening in eV -4-tet -1-fermi 0-gaus

 Electronic relaxation 2 (details)
   IALGO  =     38    algorithm
   LDIAG  =      T    sub-space diagonalisation (order eigenvalues)
   LSUBROT=      F    optimize rotation matrix (better conditioning)
   TURBO    =      0    0=normal 1=particle mesh
   IRESTART =      0    0=no restart 2=restart with 2 vectors
   NREBOOT  =      0    no. of reboots
   NMIN     =      0    reboot dimension
   EREF     =   0.00    reference energy to select bands
   IMIX   =      4    mixing-type and parameters
     AMIX     =   0.40;   BMIX     =  1.00
     AMIX_MAG =   1.60;   BMIX_MAG =  1.00
     AMIN     =   0.10
     WC   =   100.;   INIMIX=   1;  MIXPRE=   1;  MAXMIX= -45

 Intra band minimization:
   WEIMIN = 0.0000     energy-eigenvalue tresh-hold
   EBREAK =  0.12E-08  absolut break condition
   DEPER  =   0.30     relativ break condition  

   TIME   =   0.40     timestep for ELM

  volume/ion in A,a.u.               =      42.52       286.96
  Fermi-wavevector in a.u.,A,eV,Ry     =   0.911246  1.722006 11.297872  0.830370
  Thomas-Fermi vector in A             =   2.035503
 
 Write flags
   LWAVE        =      T    write WAVECAR
   LDOWNSAMPLE  =      F    k-point downsampling of WAVECAR
   LCHARG       =      T    write CHGCAR
   LVTOT        =      F    write LOCPOT, total local potential
   LVHAR        =      F    write LOCPOT, Hartree potential only
   LELF         =      F    write electronic localiz. function (ELF)
   LORBIT       =     10    0 simple, 1 ext, 2 COOP (PROOUT), +10 PAW based schemes


 Dipole corrections
   LMONO  =      F    monopole corrections only (constant potential shift)
   LDIPOL =      F    correct potential (dipole corrections)
   IDIPOL =      0    1-x, 2-y, 3-z, 4-all directions 
   EPSILON=  1.0000000 bulk dielectric constant

 Exchange correlation treatment:
   GGA     =    --    GGA type
   LEXCH   =     8    internal setting for exchange type
   VOSKOWN=      0    Vosko Wilk Nusair interpolation
   LHFCALC =     F    Hartree Fock is set to
   LHFONE  =     F    Hartree Fock one center treatment
   AEXX    =    0.0000 exact exchange contribution

 Linear response parameters
   LEPSILON=     F    determine dielectric tensor
   LRPA    =     F    only Hartree local field effects (RPA)
   LNABLA  =     F    use nabla operator in PAW spheres
   LVEL    =     F    velocity operator in full k-point grid
   LINTERFAST=   F  fast interpolation
   KINTER  =     0    interpolate to denser k-point grid
   CSHIFT  =0.1000    complex shift for real part using Kramers Kronig
   OMEGAMAX=  -1.0    maximum frequency
   DEG_THRESHOLD= 0.2000000E-02 threshold for treating states as degnerate
   RTIME   =   -0.100 relaxation time in fs
  (WPLASMAI=    0.000 imaginary part of plasma frequency in eV, 0.658/RTIME)
   DFIELD  = 0.0000000 0.0000000 0.0000000 field for delta impulse in time
 
 Orbital magnetization related:
   ORBITALMAG=     F  switch on orbital magnetization
   LCHIMAG   =     F  perturbation theory with respect to B field
   DQ        =  0.001000  dq finite difference perturbation B field
   LLRAUG    =     F  two centre corrections for induced B field



--------------------------------------------------------------------------------------------------------


 Static calculation
 charge density and potential will be updated during run
 non-spin polarized calculation
 Variant of blocked Davidson
 Davidson routine will perform the subspace rotation
 perform sub-space diagonalisation
    after iterative eigenvector-optimisation
 modified Broyden-mixing scheme, WC =      100.0
 initial mixing is a Kerker type mixing with AMIX =  0.4000 and BMIX =      1.0000
 Hartree-type preconditioning will be used
 using additional bands           35
 reciprocal scheme for non local part
 use partial core corrections
 calculate Harris-corrections to forces 
   (improved forces if not selfconsistent)
 use gradient corrections 
 use of overlap-Matrix (Vanderbilt PP)
 Fermi weights with tetrahedron method with Bloechl corrections


--------------------------------------------------------------------------------------------------------


  energy-cutoff  :      250.00
  volume of cell :     2041.08
      direct lattice vectors                 reciprocal lattice vectors
    12.684636541  0.001010773  0.001187791     0.078835528 -0.000006893 -0.000005888
     0.001109087 12.683948555  0.001157893    -0.000006282  0.078839804 -0.000004701
     0.000947603  0.000756461 12.686069239    -0.000007381 -0.000007195  0.078826624

  length of vectors
    12.684636637 12.683948657 12.686069297     0.078835528  0.078839804  0.078826625


 
 old parameters found on file WAVECAR:
  energy-cutoff  :      250.00
  volume of cell :     2041.08
      direct lattice vectors                 reciprocal lattice vectors
    12.684636541  0.001010773  0.001187791     0.078835528 -0.000006893 -0.000005888
     0.001109087 12.683948555  0.001157893    -0.000006282  0.078839804 -0.000004701
     0.000947603  0.000756461 12.686069239    -0.000007381 -0.000007195  0.078826624

  length of vectors

 
 k-points in units of 2pi/SCALE and weight: agbii                                   
   0.00000000  0.00000000  0.00000000       0.016
   0.01970888 -0.00000172 -0.00000147       0.031
   0.03941776 -0.00000345 -0.00000294       0.016
  -0.00000157  0.01970995 -0.00000118       0.031
   0.01970731  0.01970823 -0.00000265       0.031
   0.03941619  0.01970650 -0.00000412       0.031
  -0.01971045  0.01971167  0.00000030       0.031
  -0.00000314  0.03941990 -0.00000235       0.016
   0.01970574  0.03941818 -0.00000382       0.031
   0.03941462  0.03941646 -0.00000529       0.016
  -0.00000185 -0.00000180  0.01970666       0.031
   0.01970704 -0.00000352  0.01970518       0.031
   0.03941592 -0.00000525  0.01970371       0.031
  -0.01971073 -0.00000008  0.01970813       0.031
  -0.00000342  0.01970815  0.01970548       0.031
   0.01970547  0.01970643  0.01970401       0.031
   0.03941435  0.01970471  0.01970254       0.031
  -0.01971230  0.01970988  0.01970695       0.031
  -0.00000499  0.03941810  0.01970431       0.031
   0.01970390  0.03941638  0.01970283       0.031
   0.03941278  0.03941466  0.01970136       0.031
  -0.01971387  0.03941983  0.01970578       0.031
  -0.00000027 -0.01971175  0.01970783       0.031
   0.01970861 -0.01971347  0.01970636       0.031
   0.03941749 -0.01971520  0.01970489       0.031
  -0.01970916 -0.01971003  0.01970930       0.031
  -0.00000369 -0.00000360  0.03941331       0.016
   0.01970519 -0.00000532  0.03941184       0.031
   0.03941407 -0.00000704  0.03941037       0.016
  -0.00000526  0.01970635  0.03941214       0.031
   0.01970362  0.01970463  0.03941066       0.031
   0.03941250  0.01970291  0.03940919       0.031
  -0.01971414  0.01970808  0.03941361       0.031
  -0.00000683  0.03941630  0.03941096       0.016
   0.01970205  0.03941458  0.03940949       0.031
   0.03941093  0.03941286  0.03940802       0.016
 
 k-points in reciprocal lattice and weights: agbii                                   
   0.00000000  0.00000000  0.00000000       0.016
   0.25000000 -0.00000000  0.00000000       0.031
   0.50000000 -0.00000000  0.00000000       0.016
   0.00000000  0.25000000 -0.00000000       0.031
   0.25000000  0.25000000 -0.00000000       0.031
   0.50000000  0.25000000 -0.00000000       0.031
  -0.25000000  0.25000000 -0.00000000       0.031
   0.00000000  0.50000000  0.00000000       0.016
   0.25000000  0.50000000  0.00000000       0.031
   0.50000000  0.50000000  0.00000000       0.016
  -0.00000000  0.00000000  0.25000000       0.031
   0.25000000  0.00000000  0.25000000       0.031
   0.50000000  0.00000000  0.25000000       0.031
  -0.25000000  0.00000000  0.25000000       0.031
  -0.00000000  0.25000000  0.25000000       0.031
   0.25000000  0.25000000  0.25000000       0.031
   0.50000000  0.25000000  0.25000000       0.031
  -0.25000000  0.25000000  0.25000000       0.031
  -0.00000000  0.50000000  0.25000000       0.031
   0.25000000  0.50000000  0.25000000       0.031
   0.50000000  0.50000000  0.25000000       0.031
  -0.25000000  0.50000000  0.25000000       0.031
   0.00000000 -0.25000000  0.25000000       0.031
   0.25000000 -0.25000000  0.25000000       0.031
   0.50000000 -0.25000000  0.25000000       0.031
  -0.25000000 -0.25000000  0.25000000       0.031
  -0.00000000  0.00000000  0.50000000       0.016
   0.25000000  0.00000000  0.50000000       0.031
   0.50000000  0.00000000  0.50000000       0.016
  -0.00000000  0.25000000  0.50000000       0.031
   0.25000000  0.25000000  0.50000000       0.031
   0.50000000  0.25000000  0.50000000       0.031
  -0.25000000  0.25000000  0.50000000       0.031
  -0.00000000  0.50000000  0.50000000       0.016
   0.25000000  0.50000000  0.50000000       0.031
   0.50000000  0.50000000  0.50000000       0.016
 
 position of ions in fractional coordinates (direct lattice) 
   0.01634442  0.98358532  0.99969721
   0.51670571  0.48303339  0.00018711
   0.01616225  0.76504638  0.75065777
   0.23455569  0.98359859  0.24972989
   0.73480164  0.48364303  0.24984168
   0.51627104  0.26509008  0.75084798
   0.73431125  0.26560479  0.50003736
   0.23495570  0.76535213  0.50040950
   0.25223346  0.24736215  0.00008306
   0.75226032  0.74757657  0.00015173
   0.99721314  0.24722130  0.25004316
   0.99700957  0.50310598  0.49990094
   0.49670428  0.00306215  0.50007631
   0.75241150  0.00259482  0.75005619
   0.49711343  0.74731598  0.24995327
   0.25233723  0.50263912  0.75036745
   0.24894508  0.00668966  0.01010262
   0.25614854  0.99871156  0.48964151
   0.24857828  0.49975510  0.99589777
   0.24950000  0.49885714  0.50457899
   0.74882364  0.99994493  0.99571222
   0.74923176  0.99850421  0.50441382
   0.74921940  0.50682264  0.01058057
   0.75636624  0.49898467  0.48929102
   0.99990147  0.25081219  0.00435816
   0.00112960  0.25052035  0.49568893
   0.99293959  0.75088267  0.99001719
   0.00160905  0.74367491  0.51058795
   0.49300785  0.25051900  0.99016822
   0.50107001  0.24360376  0.51066904
   0.49988332  0.75107286  0.00440583
   0.50075805  0.75042003  0.49574792
   0.00147999  0.00655606  0.23876213
   0.99310327  0.99825613  0.76103612
   0.00012005  0.49981578  0.25424674
   0.99983514  0.50009417  0.74568752
   0.49963930  0.99986291  0.25436142
   0.49988877  0.00017135  0.74582225
   0.50155499  0.50660682  0.23871769
   0.49307949  0.49819675  0.76167081
   0.24944164  0.25053464  0.24574654
   0.24906764  0.25037215  0.75444318
   0.25646704  0.75073615  0.26103969
   0.24911051  0.74337409  0.73944260
   0.75649105  0.25066585  0.26135629
   0.74910367  0.24339835  0.73875989
   0.74942501  0.75101793  0.24571789
   0.74912368  0.75037604  0.75441423
 
 position of ions in cartesian coordinates  (Angst):
   0.20936118 12.47651838 12.68338636
   6.55476009  6.12729305  0.00354667
   0.20657213  9.70439308  9.52380142
   2.97658126 12.47633987  3.16950817
   9.32146485  6.13543508  3.17094163
   6.54971600  3.36347877  9.52622964
   9.31523968  3.37003803  6.34468832
   2.98165068  9.70830302  6.34939487
   3.19976423  3.13778385  0.00163968
   9.54297803  9.48298328  0.00368395
  12.64979741  3.13693935  3.17353560
  12.64773569  6.38275628  6.34354466
   6.30099049  0.03972053  6.34459618
   9.54478003  0.03424041  9.51616146
   6.30676884  9.47960899  3.17238025
   3.20207451  6.37627144  9.52009518
   3.15779490  0.08511063  0.12846596
   3.25072276 12.66823534  6.21308679
   3.15462312  6.33987265 12.63490200
   3.16584825  6.32811218  6.40199803
   9.50060823 12.68476020 12.63372149
   9.50531798 12.66611488  6.40107479
   9.50414792  6.42927764  0.13570266
   9.59524792  6.33023057  6.20865597
  12.68366907  3.18230293  0.05676601
   0.01507618  3.17796335  6.28863551
  12.59684870  9.52590968 12.56147552
   0.02171881  9.43312220  6.47821714
   6.25484157  3.17881747 12.56221827
   6.35664507  3.09075027  6.47926001
   6.34167536  9.52707811  0.05735603
   6.35323595  9.51917016  6.29055613
   0.01900663  0.08333878  3.02896229
  12.59898232 12.66340891  9.65689239
   0.00231805  6.33983009  3.22597058
  12.68380662  6.34474340  9.46161017
   6.33909294 12.68290714  3.22859776
   6.34161427  0.00324289  9.46214666
   6.36283083  6.42646233  3.02957154
   6.25580847  6.32017656  9.66377123
   3.16458723  3.17820655  3.11814394
   3.16032508  3.17652995  9.57150418
   3.25427117  9.52275534  3.31274152
   3.16140145  9.42972992  9.38177669
   9.59633974  3.18039506  3.31677283
   9.50307777  3.08856821  9.37313070
   9.50724964  9.52681619  3.11895393
   9.50390875  9.51905894  9.57230982
 


--------------------------------------------------------------------------------------------------------


 k-point   1 :   0.0000 0.0000 0.0000  plane waves:   18325
 k-point   2 :   0.2500-0.0000 0.0000  plane waves:   18309
 k-point   3 :   0.5000-0.0000 0.0000  plane waves:   18368
 k-point   4 :   0.0000 0.2500-0.0000  plane waves:   18309
 k-point   5 :   0.2500 0.2500-0.0000  plane waves:   18355
 k-point   6 :   0.5000 0.2500-0.0000  plane waves:   18328
 k-point   7 :  -0.2500 0.2500-0.0000  plane waves:   18355
 k-point   8 :   0.0000 0.5000 0.0000  plane waves:   18368
 k-point   9 :   0.2500 0.5000 0.0000  plane waves:   18328
 k-point  10 :   0.5000 0.5000 0.0000  plane waves:   18280
 k-point  11 :  -0.0000 0.0000 0.2500  plane waves:   18309
 k-point  12 :   0.2500 0.0000 0.2500  plane waves:   18355
 k-point  13 :   0.5000 0.0000 0.2500  plane waves:   18328
 k-point  14 :  -0.2500 0.0000 0.2500  plane waves:   18355
 k-point  15 :  -0.0000 0.2500 0.2500  plane waves:   18355
 k-point  16 :   0.2500 0.2500 0.2500  plane waves:   18331
 k-point  17 :   0.5000 0.2500 0.2500  plane waves:   18321
 k-point  18 :  -0.2500 0.2500 0.2500  plane waves:   18331
 k-point  19 :  -0.0000 0.5000 0.2500  plane waves:   18328
 k-point  20 :   0.2500 0.5000 0.2500  plane waves:   18321
 k-point  21 :   0.5000 0.5000 0.2500  plane waves:   18276
 k-point  22 :  -0.2500 0.5000 0.2500  plane waves:   18322
 k-point  23 :   0.0000-0.2500 0.2500  plane waves:   18355
 k-point  24 :   0.2500-0.2500 0.2500  plane waves:   18331
 k-point  25 :   0.5000-0.2500 0.2500  plane waves:   18320
 k-point  26 :  -0.2500-0.2500 0.2500  plane waves:   18331
 k-point  27 :  -0.0000 0.0000 0.5000  plane waves:   18368
 k-point  28 :   0.2500 0.0000 0.5000  plane waves:   18328
 k-point  29 :   0.5000 0.0000 0.5000  plane waves:   18280
 k-point  30 :  -0.0000 0.2500 0.5000  plane waves:   18328
 k-point  31 :   0.2500 0.2500 0.5000  plane waves:   18321
 k-point  32 :   0.5000 0.2500 0.5000  plane waves:   18276
 k-point  33 :  -0.2500 0.2500 0.5000  plane waves:   18318
 k-point  34 :  -0.0000 0.5000 0.5000  plane waves:   18276
 k-point  35 :   0.2500 0.5000 0.5000  plane waves:   18276
 k-point  36 :   0.5000 0.5000 0.5000  plane waves:   18336

 maximum and minimum number of plane-waves per node :     18368    18276

 maximum number of plane-waves:     18368
 maximum index in each direction: 
   IXMAX=   16   IYMAX=   16   IZMAX=   16
   IXMIN=  -16   IYMIN=  -16   IZMIN=  -16


 serial   3D FFT for wavefunctions
 parallel 3D FFT for charge:
    minimum data exchange during FFTs selected (reduces bandwidth)


 total amount of memory used by VASP MPI-rank0  2748304. kBytes
=======================================================================

   base      :      30000. kBytes
   nonl-proj :     299765. kBytes
   fftplans  :      34720. kBytes
   grid      :      70000. kBytes
   one-center:        746. kBytes
   wavefun   :    2313073. kBytes
 
     INWAV:  cpu time    4.4748: real time    5.2507
 Broyden mixing: mesh for mixing (old mesh)
   NGX = 33   NGY = 33   NGZ = 33
  (NGX  =100   NGY  =100   NGZ  =100)
  gives a total of  35937 points

 initial charge density was supplied:
 number of electron     352.0000086 magnetization 
 keeping initial charge density in first step


--------------------------------------------------------------------------------------------------------


 Maximum index for augmentation-charges         5666 (set IRDMAX)


--------------------------------------------------------------------------------------------------------


 First call to EWALD:  gamma=   0.140
 Maximum number of real-space cells 3x 3x 3
 Maximum number of reciprocal cells 3x 3x 3

    FEWALD:  cpu time    0.0026: real time    0.0026


--------------------------------------- Iteration      1(   1)  ---------------------------------------


    POTLOK:  cpu time    0.5845: real time    0.5962
    SETDIJ:  cpu time    0.0277: real time    0.0277
     EDDAV:  cpu time   56.8118: real time   56.8106
 BZINTS: Fermi energy:    1.973832;  352.000000 electrons
         Band energy:-0.733429E+03;  BLOECHL correction:    0.000000
       DOS:  cpu time    0.0528: real time    0.0528
    CHARGE:  cpu time    1.2182: real time    1.2182
    MIXING:  cpu time    0.0258: real time    0.0258
    --------------------------------------------
      LOOP:  cpu time   58.7209: real time   58.7314

 eigenvalue-minimisations  : 10082
 total energy-change (2. order) :-0.1201172E+03  (-0.2311900E-06)
 number of electron     352.0000086 magnetization 
 augmentation part      -23.1161951 magnetization 

 Broyden mixing:
  rms(total) = 0.61459E-03    rms(broyden)= 0.61456E-03
  rms(prec ) = 0.69355E-03
  weight for this iteration     100.00

 Free energy of the ion-electron system (eV)
  ---------------------------------------------------
  alpha Z        PSCENC =       228.16295173
  Ewald energy   TEWEN  =    -13984.81400707
  -Hartree energ DENC   =     -5992.25739993
  -exchange      EXHF   =         0.00000000
  -V(xc)+E(xc)   XCENC  =     -1392.19889289
  PAW double counting   =     22650.75147657   -20508.05615760
  entropy T*S    EENTRO =         0.00000000
  eigenvalues    EBANDS =      -733.42892929
  atomic energy  EATOM  =     19611.72375700
  Solvation  Ediel_sol  =         0.00000000
  ---------------------------------------------------
  free energy    TOTEN  =      -120.11720148 eV

  energy without entropy =     -120.11720148  energy(sigma->0) =     -120.11720148


--------------------------------------------------------------------------------------------------------




--------------------------------------- Iteration      1(   2)  ---------------------------------------


    POTLOK:  cpu time    0.5693: real time    0.5694
    SETDIJ:  cpu time    0.0491: real time    0.0491
     EDDAV:  cpu time   50.1590: real time   50.1579
 BZINTS: Fermi energy:    1.973881;  352.000000 electrons
         Band energy:-0.733426E+03;  BLOECHL correction:    0.000000
       DOS:  cpu time    0.0545: real time    0.0545
    --------------------------------------------
      LOOP:  cpu time   50.8318: real time   50.8308

 eigenvalue-minimisations  :  8202
 total energy-change (2. order) : 0.2742599E-06  (-0.9493014E-07)
 number of electron     352.0000086 magnetization 
 augmentation part      -23.1161951 magnetization 

 Free energy of the ion-electron system (eV)
  ---------------------------------------------------
  alpha Z        PSCENC =       228.16295173
  Ewald energy   TEWEN  =    -13984.81400707
  -Hartree energ DENC   =     -5992.26024710
  -exchange      EXHF   =         0.00000000
  -V(xc)+E(xc)   XCENC  =     -1392.19849927
  PAW double counting   =     22650.32034139   -20507.62563054
  entropy T*S    EENTRO =         0.00000000
  eigenvalues    EBANDS =      -733.42586735
  atomic energy  EATOM  =     19611.72375700
  Solvation  Ediel_sol  =         0.00000000
  ---------------------------------------------------
  free energy    TOTEN  =      -120.11720121 eV

  energy without entropy =     -120.11720121  energy(sigma->0) =     -120.11720121


--------------------------------------------------------------------------------------------------------




 average (electrostatic) potential at core
  the test charge radii are     1.1249  1.4024  1.1875
  (the norm of the test charge is              1.0000)
       1 -75.0266       2 -75.0292       3 -75.0224       4 -75.0221       5 -75.0240
       6 -75.0234       7 -75.0226       8 -75.0189       9 -65.4049      10 -65.4048
      11 -65.4061      12 -65.4052      13 -65.4048      14 -65.4062      15 -65.4053
      16 -65.4061      17 -93.0844      18 -93.0782      19 -93.1520      20 -93.1514
      21 -93.1535      22 -93.1501      23 -93.0869      24 -93.0805      25 -93.1548
      26 -93.1513      27 -93.0853      28 -93.0769      29 -93.0865      30 -93.0783
      31 -93.1525      32 -93.1520      33 -93.0850      34 -93.0867      35 -93.1614
      36 -93.1624      37 -93.1619      38 -93.1627      39 -93.0865      40 -93.0876
      41 -93.1581      42 -93.1572      43 -93.0845      44 -93.0859      45 -93.0882
      46 -93.0882      47 -93.1560      48 -93.1570
 
 
 
 E-fermi :   1.9739     XC(G=0):  -7.8504     alpha+bet : -7.8420


 k-point     1 :       0.0000    0.0000    0.0000
  band No.  band energies     occupation 
      1     -10.7473      2.00000
      2     -10.6452      2.00000
      3     -10.4180      2.00000
      4     -10.4176      2.00000
      5     -10.4049      2.00000
      6     -10.4035      2.00000
      7     -10.0197      2.00000
      8     -10.0058      2.00000
      9      -9.8177      2.00000
     10      -9.7280      2.00000
     11      -9.7247      2.00000
     12      -9.7175      2.00000
     13      -9.7044      2.00000
     14      -9.7005      2.00000
     15      -9.7000      2.00000
     16      -9.6821      2.00000
     17      -9.6749      2.00000
     18      -9.6606      2.00000
     19      -9.6391      2.00000
     20      -9.6271      2.00000
     21      -9.6243      2.00000
     22      -9.6108      2.00000
     23      -9.6059      2.00000
     24      -9.5568      2.00000
     25      -9.5538      2.00000
     26      -9.5512      2.00000
     27      -9.5284      2.00000
     28      -9.5267      2.00000
     29      -9.5251      2.00000
     30      -9.5226      2.00000
     31      -9.5167      2.00000
     32      -9.5158      2.00000
     33      -8.1373      2.00000
     34      -8.1246      2.00000
     35      -7.7689      2.00000
     36      -7.7686      2.00000
     37      -7.7670      2.00000
     38      -7.7668      2.00000
     39      -7.5507      2.00000
     40      -7.4368      2.00000
     41      -1.7369      2.00000
     42      -1.6688      2.00000
     43      -1.6238      2.00000
     44      -1.6123      2.00000
     45      -1.5064      2.00000
     46      -1.4690      2.00000
     47      -1.4168      2.00000
     48      -1.4119      2.00000
     49      -1.3690      2.00000
     50      -1.3669      2.00000
     51      -1.2786      2.00000
     52      -1.2750      2.00000
     53      -1.2101      2.00000
     54      -1.2037      2.00000
     55      -1.1989      2.00000
     56      -1.1943      2.00000
     57      -1.1722      2.00000
     58      -1.1687      2.00000
     59      -1.1655      2.00000
     60      -1.1502      2.00000
     61      -1.1264      2.00000
     62      -1.0251      2.00000
     63      -1.0026      2.00000
     64      -0.9869      2.00000
     65      -0.9827      2.00000
     66      -0.9781      2.00000
     67      -0.9401      2.00000
     68      -0.9339      2.00000
     69      -0.9275      2.00000
     70      -0.9173      2.00000
     71      -0.8456      2.00000
     72      -0.8331      2.00000
     73      -0.8178      2.00000
     74      -0.8135      2.00000
     75      -0.7996      2.00000
     76      -0.7928      2.00000
     77      -0.7902      2.00000
     78      -0.7304      2.00000
     79      -0.6931      2.00000
     80      -0.6792      2.00000
     81      -0.6760      2.00000
     82      -0.6754      2.00000
     83      -0.5725      2.00000
     84      -0.5645      2.00000
     85      -0.5628      2.00000
     86      -0.5019      2.00000
     87      -0.4508      2.00000
     88      -0.4454      2.00000
     89      -0.4444      2.00000
     90      -0.4403      2.00000
     91      -0.4094      2.00000
     92      -0.3885      2.00000
     93      -0.3472      2.00000
     94      -0.3310      2.00000
     95      -0.3059      2.00000
     96      -0.3049      2.00000
     97      -0.2980      2.00000
     98      -0.2968      2.00000
     99      -0.2833      2.00000
    100      -0.2626      2.00000
    101      -0.1958      2.00000
    102      -0.1943      2.00000
    103      -0.1842      2.00000
    104      -0.1616      2.00000
    105      -0.1600      2.00000
    106      -0.1581      2.00000
    107      -0.1207      2.00000
    108      -0.1090      2.00000
    109      -0.0795      2.00000
    110      -0.0503      2.00000
    111      -0.0489      2.00000
    112      -0.0341      2.00000
    113       0.0670      2.00000
    114       0.0931      2.00000
    115       0.1606      2.00000
    116       0.1996      2.00000
    117       0.2710      2.00000
    118       0.2740      2.00000
    119       0.3639      2.00000
    120       0.3729      2.00000
    121       0.3935      2.00000
    122       0.3984      2.00000
    123       0.4252      2.00000
    124       0.4589      2.00000
    125       0.4886      2.00000
    126       0.4898      2.00000
    127       0.5009      2.00000
    128       0.5667      2.00000
    129       0.5717      2.00000
    130       0.5971      2.00000
    131       0.6316      2.00000
    132       0.6998      2.00000
    133       0.7020      2.00000
    134       0.7204      2.00000
    135       0.7246      2.00000
    136       0.7546      2.00000
    137       0.7708      2.00000
    138       0.7968      2.00000
    139       0.8843      2.00000
    140       0.8895      2.00000
    141       0.8953      2.00000
    142       0.9378      2.00000
    143       0.9394      2.00000
    144       0.9411      2.00000
    145       0.9494      2.00000
    146       0.9503      2.00000
    147       0.9721      2.00000
    148       0.9784      2.00000
    149       0.9924      2.00000
    150       0.9927      2.00000
    151       1.1188      2.00000
    152       1.1298      2.00000
    153       1.1571      2.00000
    154       1.1934      2.00000
    155       1.1946      2.00000
    156       1.2616      2.00000
    157       1.2661      2.00000
    158       1.2777      2.00000
    159       1.3200      2.00000
    160       1.3772      2.00000
    161       1.4100      2.00000
    162       1.5663      2.00000
    163       1.5705      2.00000
    164       1.6246      2.00000
    165       1.7195      2.00000
    166       1.7231      2.00000
    167       1.7885      2.00000
    168       1.7972      2.00000
    169       1.8278      2.00000
    170       1.8392      2.00000
    171       1.9003      2.00000
    172       1.9068      2.00000
    173       1.9298      2.00000
    174       1.9342      2.00000
    175       1.9716      2.00000
    176       1.9724      2.00000
    177       4.0032      0.00000
    178       4.1188      0.00000
    179       4.1569      0.00000
    180       4.1595      0.00000
    181       4.3454      0.00000
    182       4.3916      0.00000
    183       4.3940      0.00000
    184       4.4419      0.00000
    185       4.5219      0.00000
    186       4.5959      0.00000
    187       4.6009      0.00000
    188       4.6137      0.00000
    189       4.6220      0.00000
    190       4.6341      0.00000
    191       4.6799      0.00000
    192       4.7271      0.00000
    193       4.7281      0.00000
    194       4.7973      0.00000
    195       4.8040      0.00000
    196       4.8704      0.00000
    197       4.8729      0.00000
    198       4.8883      0.00000
    199       4.9930      0.00000
    200       5.0980      0.00000
    201       5.2632      0.00000
    202       5.5136      0.00000
    203       5.5753      0.00000
    204       5.5846      0.00000
    205       5.9300      0.00000
    206       5.9354      0.00000
    207       5.9913      0.00000
    208       6.0128      0.00000
    209       7.2607      0.00000
    210       7.2897      0.00000
    211       7.3088      0.00000

 k-point     2 :       0.2500   -0.0000    0.0000
  band No.  band energies     occupation 
      1     -10.7342      2.00000
      2     -10.6624      2.00000
      3     -10.4149      2.00000
      4     -10.4146      2.00000
      5     -10.4058      2.00000
      6     -10.4046      2.00000
      7     -10.0219      2.00000
      8     -10.0127      2.00000
      9      -9.7996      2.00000
     10      -9.7330      2.00000
     11      -9.7312      2.00000
     12      -9.7252      2.00000
     13      -9.7166      2.00000
     14      -9.7086      2.00000
     15      -9.6982      2.00000
     16      -9.6844      2.00000
     17      -9.6744      2.00000
     18      -9.6660      2.00000
     19      -9.6288      2.00000
     20      -9.6106      2.00000
     21      -9.6033      2.00000
     22      -9.5962      2.00000
     23      -9.5886      2.00000
     24      -9.5678      2.00000
     25      -9.5537      2.00000
     26      -9.5463      2.00000
     27      -9.5390      2.00000
     28      -9.5338      2.00000
     29      -9.5293      2.00000
     30      -9.5286      2.00000
     31      -9.5227      2.00000
     32      -9.5185      2.00000
     33      -8.1376      2.00000
     34      -8.1287      2.00000
     35      -7.7712      2.00000
     36      -7.7702      2.00000
     37      -7.7665      2.00000
     38      -7.7653      2.00000
     39      -7.5311      2.00000
     40      -7.4514      2.00000
     41      -1.7212      2.00000
     42      -1.6525      2.00000
     43      -1.6404      2.00000
     44      -1.6022      2.00000
     45      -1.5350      2.00000
     46      -1.5229      2.00000
     47      -1.4313      2.00000
     48      -1.3997      2.00000
     49      -1.3801      2.00000
     50      -1.3632      2.00000
     51      -1.2948      2.00000
     52      -1.2666      2.00000
     53      -1.2631      2.00000
     54      -1.2144      2.00000
     55      -1.2001      2.00000
     56      -1.1870      2.00000
     57      -1.1859      2.00000
     58      -1.1577      2.00000
     59      -1.1109      2.00000
     60      -1.1018      2.00000
     61      -1.0756      2.00000
     62      -1.0605      2.00000
     63      -1.0021      2.00000
     64      -1.0005      2.00000
     65      -0.9831      2.00000
     66      -0.9734      2.00000
     67      -0.9305      2.00000
     68      -0.9215      2.00000
     69      -0.9113      2.00000
     70      -0.8517      2.00000
     71      -0.8479      2.00000
     72      -0.8455      2.00000
     73      -0.8103      2.00000
     74      -0.7890      2.00000
     75      -0.7841      2.00000
     76      -0.7728      2.00000
     77      -0.7557      2.00000
     78      -0.7373      2.00000
     79      -0.7312      2.00000
     80      -0.7068      2.00000
     81      -0.7024      2.00000
     82      -0.6835      2.00000
     83      -0.6423      2.00000
     84      -0.6155      2.00000
     85      -0.5646      2.00000
     86      -0.4731      2.00000
     87      -0.4697      2.00000
     88      -0.4370      2.00000
     89      -0.4130      2.00000
     90      -0.4099      2.00000
     91      -0.3914      2.00000
     92      -0.3731      2.00000
     93      -0.3588      2.00000
     94      -0.3373      2.00000
     95      -0.3252      2.00000
     96      -0.3008      2.00000
     97      -0.2945      2.00000
     98      -0.2779      2.00000
     99      -0.2700      2.00000
    100      -0.2459      2.00000
    101      -0.2197      2.00000
    102      -0.1987      2.00000
    103      -0.1954      2.00000
    104      -0.1779      2.00000
    105      -0.1767      2.00000
    106      -0.1684      2.00000
    107      -0.1477      2.00000
    108      -0.1428      2.00000
    109      -0.1069      2.00000
    110      -0.0957      2.00000
    111      -0.0593      2.00000
    112       0.0222      2.00000
    113       0.0396      2.00000
    114       0.1597      2.00000
    115       0.1772      2.00000
    116       0.2543      2.00000
    117       0.2827      2.00000
    118       0.3022      2.00000
    119       0.3164      2.00000
    120       0.3708      2.00000
    121       0.3902      2.00000
    122       0.4233      2.00000
    123       0.4293      2.00000
    124       0.4380      2.00000
    125       0.4754      2.00000
    126       0.4941      2.00000
    127       0.5145      2.00000
    128       0.5534      2.00000
    129       0.6014      2.00000
    130       0.6613      2.00000
    131       0.6649      2.00000
    132       0.6907      2.00000
    133       0.6995      2.00000
    134       0.7295      2.00000
    135       0.7372      2.00000
    136       0.7562      2.00000
    137       0.7662      2.00000
    138       0.7777      2.00000
    139       0.8765      2.00000
    140       0.8809      2.00000
    141       0.8844      2.00000
    142       0.8958      2.00000
    143       0.9087      2.00000
    144       0.9156      2.00000
    145       0.9248      2.00000
    146       0.9337      2.00000
    147       0.9671      2.00000
    148       0.9909      2.00000
    149       1.0236      2.00000
    150       1.0502      2.00000
    151       1.1077      2.00000
    152       1.1449      2.00000
    153       1.1544      2.00000
    154       1.1626      2.00000
    155       1.2347      2.00000
    156       1.2527      2.00000
    157       1.2708      2.00000
    158       1.2977      2.00000
    159       1.3142      2.00000
    160       1.3418      2.00000
    161       1.5057      2.00000
    162       1.5806      2.00000
    163       1.6115      2.00000
    164       1.6485      2.00000
    165       1.7220      2.00000
    166       1.7269      2.00000
    167       1.7812      2.00000
    168       1.7847      2.00000
    169       1.8020      2.00000
    170       1.8031      2.00000
    171       1.8748      2.00000
    172       1.8897      2.00000
    173       1.9043      2.00000
    174       1.9053      2.00000
    175       1.9158      2.00000
    176       1.9454      2.00000
    177       4.0398      0.00000
    178       4.1203      0.00000
    179       4.1995      0.00000
    180       4.2195      0.00000
    181       4.3565      0.00000
    182       4.3607      0.00000
    183       4.3901      0.00000
    184       4.4248      0.00000
    185       4.5059      0.00000
    186       4.5683      0.00000
    187       4.5981      0.00000
    188       4.6425      0.00000
    189       4.6571      0.00000
    190       4.6607      0.00000
    191       4.6892      0.00000
    192       4.7033      0.00000
    193       4.7436      0.00000
    194       4.7905      0.00000
    195       4.8002      0.00000
    196       4.8435      0.00000
    197       4.8518      0.00000
    198       4.9066      0.00000
    199       4.9264      0.00000
    200       5.0562      0.00000
    201       5.3718      0.00000
    202       5.5637      0.00000
    203       5.6330      0.00000
    204       5.6488      0.00000
    205       5.8182      0.00000
    206       5.8565      0.00000
    207       5.9382      0.00000
    208       5.9527      0.00000
    209       7.3085      0.00000
    210       7.3898      0.00000
    211       7.4250      0.00000

 k-point     3 :       0.5000   -0.0000    0.0000
  band No.  band energies     occupation 
      1     -10.7004      2.00000
      2     -10.7001      2.00000
      3     -10.4095      2.00000
      4     -10.4092      2.00000
      5     -10.4085      2.00000
      6     -10.4085      2.00000
      7     -10.0219      2.00000
      8     -10.0216      2.00000
      9      -9.7614      2.00000
     10      -9.7614      2.00000
     11      -9.7352      2.00000
     12      -9.7340      2.00000
     13      -9.7200      2.00000
     14      -9.7197      2.00000
     15      -9.6915      2.00000
     16      -9.6912      2.00000
     17      -9.6720      2.00000
     18      -9.6714      2.00000
     19      -9.6022      2.00000
     20      -9.6013      2.00000
     21      -9.5843      2.00000
     22      -9.5831      2.00000
     23      -9.5716      2.00000
     24      -9.5715      2.00000
     25      -9.5551      2.00000
     26      -9.5540      2.00000
     27      -9.5438      2.00000
     28      -9.5427      2.00000
     29      -9.5379      2.00000
     30      -9.5378      2.00000
     31      -9.5260      2.00000
     32      -9.5255      2.00000
     33      -8.1355      2.00000
     34      -8.1351      2.00000
     35      -7.7735      2.00000
     36      -7.7728      2.00000
     37      -7.7649      2.00000
     38      -7.7636      2.00000
     39      -7.4891      2.00000
     40      -7.4888      2.00000
     41      -1.6815      2.00000
     42      -1.6810      2.00000
     43      -1.6052      2.00000
     44      -1.6040      2.00000
     45      -1.5705      2.00000
     46      -1.5704      2.00000
     47      -1.4370      2.00000
     48      -1.4351      2.00000
     49      -1.3638      2.00000
     50      -1.3635      2.00000
     51      -1.3017      2.00000
     52      -1.3015      2.00000
     53      -1.2341      2.00000
     54      -1.2339      2.00000
     55      -1.1887      2.00000
     56      -1.1861      2.00000
     57      -1.1631      2.00000
     58      -1.1612      2.00000
     59      -1.1149      2.00000
     60      -1.1145      2.00000
     61      -1.0261      2.00000
     62      -1.0242      2.00000
     63      -1.0107      2.00000
     64      -1.0087      2.00000
     65      -0.9685      2.00000
     66      -0.9669      2.00000
     67      -0.8949      2.00000
     68      -0.8940      2.00000
     69      -0.8742      2.00000
     70      -0.8734      2.00000
     71      -0.8568      2.00000
     72      -0.8544      2.00000
     73      -0.7977      2.00000
     74      -0.7976      2.00000
     75      -0.7915      2.00000
     76      -0.7913      2.00000
     77      -0.7393      2.00000
     78      -0.7386      2.00000
     79      -0.7233      2.00000
     80      -0.7225      2.00000
     81      -0.7088      2.00000
     82      -0.7075      2.00000
     83      -0.6461      2.00000
     84      -0.6454      2.00000
     85      -0.4819      2.00000
     86      -0.4805      2.00000
     87      -0.4593      2.00000
     88      -0.4576      2.00000
     89      -0.4276      2.00000
     90      -0.4249      2.00000
     91      -0.3972      2.00000
     92      -0.3964      2.00000
     93      -0.3511      2.00000
     94      -0.3502      2.00000
     95      -0.2974      2.00000
     96      -0.2966      2.00000
     97      -0.2749      2.00000
     98      -0.2734      2.00000
     99      -0.2723      2.00000
    100      -0.2709      2.00000
    101      -0.2290      2.00000
    102      -0.2287      2.00000
    103      -0.2003      2.00000
    104      -0.1990      2.00000
    105      -0.1642      2.00000
    106      -0.1625      2.00000
    107      -0.1598      2.00000
    108      -0.1585      2.00000
    109      -0.0925      2.00000
    110      -0.0923      2.00000
    111      -0.0770      2.00000
    112      -0.0761      2.00000
    113       0.1197      2.00000
    114       0.1237      2.00000
    115       0.2345      2.00000
    116       0.2351      2.00000
    117       0.3050      2.00000
    118       0.3062      2.00000
    119       0.3339      2.00000
    120       0.3349      2.00000
    121       0.3799      2.00000
    122       0.3811      2.00000
    123       0.4859      2.00000
    124       0.4866      2.00000
    125       0.5307      2.00000
    126       0.5311      2.00000
    127       0.6267      2.00000
    128       0.6271      2.00000
    129       0.6460      2.00000
    130       0.6467      2.00000
    131       0.6570      2.00000
    132       0.6573      2.00000
    133       0.6691      2.00000
    134       0.6702      2.00000
    135       0.7060      2.00000
    136       0.7064      2.00000
    137       0.7629      2.00000
    138       0.7637      2.00000
    139       0.8396      2.00000
    140       0.8410      2.00000
    141       0.8727      2.00000
    142       0.8737      2.00000
    143       0.8769      2.00000
    144       0.8771      2.00000
    145       0.9604      2.00000
    146       0.9612      2.00000
    147       0.9631      2.00000
    148       0.9652      2.00000
    149       1.1037      2.00000
    150       1.1053      2.00000
    151       1.1338      2.00000
    152       1.1341      2.00000
    153       1.1807      2.00000
    154       1.1818      2.00000
    155       1.2358      2.00000
    156       1.2362      2.00000
    157       1.2735      2.00000
    158       1.2742      2.00000
    159       1.2946      2.00000
    160       1.2959      2.00000
    161       1.6608      2.00000
    162       1.6657      2.00000
    163       1.6853      2.00000
    164       1.6894      2.00000
    165       1.6959      2.00000
[...]
    143       0.9113      2.00000
    144       0.9118      2.00000
    145       1.0242      2.00000
    146       1.0250      2.00000
    147       1.0257      2.00000
    148       1.0271      2.00000
    149       1.1255      2.00000
    150       1.1285      2.00000
    151       1.1297      2.00000
    152       1.1303      2.00000
    153       1.1708      2.00000
    154       1.1732      2.00000
    155       1.1741      2.00000
    156       1.1751      2.00000
    157       1.3119      2.00000
    158       1.3131      2.00000
    159       1.3134      2.00000
    160       1.3142      2.00000
    161       1.6446      2.00000
    162       1.6536      2.00000
    163       1.6541      2.00000
    164       1.6571      2.00000
    165       1.7275      2.00000
    166       1.7334      2.00000
    167       1.7361      2.00000
    168       1.7387      2.00000
    169       1.8186      2.00000
    170       1.8204      2.00000
    171       1.8219      2.00000
    172       1.8232      2.00000
    173       1.8915      2.00000
    174       1.8937      2.00000
    175       1.8944      2.00000
    176       1.8973      2.00000
    177       4.0950      0.00000
    178       4.0967      0.00000
    179       4.0985      0.00000
    180       4.1005      0.00000
    181       4.2725      0.00000
    182       4.2764      0.00000
    183       4.2774      0.00000
    184       4.2777      0.00000
    185       4.4317      0.00000
    186       4.4352      0.00000
    187       4.4373      0.00000
    188       4.4383      0.00000
    189       4.7519      0.00000
    190       4.7536      0.00000
    191       4.7542      0.00000
    192       4.7567      0.00000
    193       4.8772      0.00000
    194       4.8785      0.00000
    195       4.8793      0.00000
    196       4.8805      0.00000
    197       4.9888      0.00000
    198       4.9901      0.00000
    199       4.9921      0.00000
    200       4.9941      0.00000
    201       5.6233      0.00000
    202       5.6253      0.00000
    203       5.6305      0.00000
    204       5.6316      0.00000
    205       5.7268      0.00000
    206       5.7288      0.00000
    207       5.7335      0.00000
    208       5.7337      0.00000
    209       7.6250      0.00000
    210       7.6255      0.00000
    211       7.6274      0.00000

 k-point    36 :       0.5000    0.5000    0.5000
  band No.  band energies     occupation 
      1     -10.6168      2.00000
      2     -10.6162      2.00000
      3     -10.6144      2.00000
      4     -10.6138      2.00000
      5     -10.1767      2.00000
      6     -10.1758      2.00000
      7     -10.1755      2.00000
      8     -10.1753      2.00000
      9      -9.7290      2.00000
     10      -9.7286      2.00000
     11      -9.7277      2.00000
     12      -9.7267      2.00000
     13      -9.6943      2.00000
     14      -9.6925      2.00000
     15      -9.6909      2.00000
     16      -9.6907      2.00000
     17      -9.6077      2.00000
     18      -9.6065      2.00000
     19      -9.6065      2.00000
     20      -9.6056      2.00000
     21      -9.6046      2.00000
     22      -9.6040      2.00000
     23      -9.6035      2.00000
     24      -9.6026      2.00000
     25      -9.5628      2.00000
     26      -9.5615      2.00000
     27      -9.5604      2.00000
     28      -9.5577      2.00000
     29      -9.5376      2.00000
     30      -9.5374      2.00000
     31      -9.5366      2.00000
     32      -9.5326      2.00000
     33      -8.0239      2.00000
     34      -8.0234      2.00000
     35      -8.0210      2.00000
     36      -8.0203      2.00000
     37      -7.5598      2.00000
     38      -7.5592      2.00000
     39      -7.5585      2.00000
     40      -7.5580      2.00000
     41      -1.5714      2.00000
     42      -1.5682      2.00000
     43      -1.5667      2.00000
     44      -1.5662      2.00000
     45      -1.5375      2.00000
     46      -1.5367      2.00000
     47      -1.5366      2.00000
     48      -1.5348      2.00000
     49      -1.4724      2.00000
     50      -1.4720      2.00000
     51      -1.4709      2.00000
     52      -1.4706      2.00000
     53      -1.1767      2.00000
     54      -1.1749      2.00000
     55      -1.1716      2.00000
     56      -1.1685      2.00000
     57      -1.0875      2.00000
     58      -1.0873      2.00000
     59      -1.0868      2.00000
     60      -1.0858      2.00000
     61      -1.0653      2.00000
     62      -1.0649      2.00000
     63      -1.0587      2.00000
     64      -1.0569      2.00000
     65      -0.9372      2.00000
     66      -0.9323      2.00000
     67      -0.9274      2.00000
     68      -0.9261      2.00000
     69      -0.8388      2.00000
     70      -0.8374      2.00000
     71      -0.8369      2.00000
     72      -0.8318      2.00000
     73      -0.8107      2.00000
     74      -0.8101      2.00000
     75      -0.8098      2.00000
     76      -0.8052      2.00000
     77      -0.7411      2.00000
     78      -0.7401      2.00000
     79      -0.7391      2.00000
     80      -0.7368      2.00000
     81      -0.6531      2.00000
     82      -0.6506      2.00000
     83      -0.6502      2.00000
     84      -0.6500      2.00000
     85      -0.4900      2.00000
     86      -0.4894      2.00000
     87      -0.4883      2.00000
     88      -0.4867      2.00000
     89      -0.3755      2.00000
     90      -0.3716      2.00000
     91      -0.3705      2.00000
     92      -0.3682      2.00000
     93      -0.3102      2.00000
     94      -0.3079      2.00000
     95      -0.3066      2.00000
     96      -0.3049      2.00000
     97      -0.2624      2.00000
     98      -0.2620      2.00000
     99      -0.2602      2.00000
    100      -0.2593      2.00000
    101      -0.1592      2.00000
    102      -0.1585      2.00000
    103      -0.1561      2.00000
    104      -0.1559      2.00000
    105      -0.1484      2.00000
    106      -0.1466      2.00000
    107      -0.1461      2.00000
    108      -0.1421      2.00000
    109      -0.0758      2.00000
    110      -0.0716      2.00000
    111      -0.0702      2.00000
    112      -0.0695      2.00000
    113       0.1241      2.00000
    114       0.1250      2.00000
    115       0.1278      2.00000
    116       0.1284      2.00000
    117       0.3009      2.00000
    118       0.3026      2.00000
    119       0.3046      2.00000
    120       0.3061      2.00000
    121       0.3474      2.00000
    122       0.3487      2.00000
    123       0.3495      2.00000
    124       0.3555      2.00000
    125       0.5169      2.00000
    126       0.5181      2.00000
    127       0.5194      2.00000
    128       0.5211      2.00000
    129       0.6062      2.00000
    130       0.6068      2.00000
    131       0.6082      2.00000
    132       0.6099      2.00000
    133       0.6651      2.00000
    134       0.6665      2.00000
    135       0.6671      2.00000
    136       0.6719      2.00000
    137       0.8164      2.00000
    138       0.8176      2.00000
    139       0.8218      2.00000
    140       0.8237      2.00000
    141       0.9158      2.00000
    142       0.9158      2.00000
    143       0.9164      2.00000
    144       0.9167      2.00000
    145       1.0537      2.00000
    146       1.0548      2.00000
    147       1.0554      2.00000
    148       1.0567      2.00000
    149       1.1404      2.00000
    150       1.1419      2.00000
    151       1.1423      2.00000
    152       1.1442      2.00000
    153       1.1834      2.00000
    154       1.1858      2.00000
    155       1.1880      2.00000
    156       1.1882      2.00000
    157       1.3032      2.00000
    158       1.3049      2.00000
    159       1.3054      2.00000
    160       1.3058      2.00000
    161       1.6638      2.00000
    162       1.6749      2.00000
    163       1.6770      2.00000
    164       1.6779      2.00000
    165       1.7698      2.00000
    166       1.7734      2.00000
    167       1.7776      2.00000
    168       1.7790      2.00000
    169       1.8050      2.00000
    170       1.8085      2.00000
    171       1.8100      2.00000
    172       1.8110      2.00000
    173       1.8983      2.00000
    174       1.9013      2.00000
    175       1.9013      2.00000
    176       1.9057      2.00000
    177       4.0148      0.00000
    178       4.0166      0.00000
    179       4.0181      0.00000
    180       4.0198      0.00000
    181       4.2411      0.00000
    182       4.2434      0.00000
    183       4.2451      0.00000
    184       4.2458      0.00000
    185       4.3792      0.00000
    186       4.3832      0.00000
    187       4.3854      0.00000
    188       4.3860      0.00000
    189       4.7833      0.00000
    190       4.7854      0.00000
    191       4.7858      0.00000
    192       4.7879      0.00000
    193       4.8993      0.00000
    194       4.9010      0.00000
    195       4.9021      0.00000
    196       4.9031      0.00000
    197       5.0647      0.00000
    198       5.0652      0.00000
    199       5.0680      0.00000
    200       5.0703      0.00000
    201       5.5903      0.00000
    202       5.5921      0.00000
    203       5.5992      0.00000
    204       5.6007      0.00000
    205       5.7153      0.00000
    206       5.7167      0.00000
    207       5.7228      0.00000
    208       5.7238      0.00000
    209       7.5332      0.00000
    210       7.5338      0.00000
    211       7.5358      0.00000


--------------------------------------------------------------------------------------------------------


 soft charge-density along one line, spin component           1
         0         1         2         3         4         5         6         7         8         9
 total charge-density along one line
 
 pseudopotential strength for first ion, spin component:           1
 -6.440   0.000  -0.001   0.000  -0.000  -6.575   0.000  -0.001
  0.000  -6.435   0.000   0.001   0.000   0.000  -6.571   0.000
 -0.001   0.000  -6.426   0.000   0.000  -0.001   0.000  -6.562
  0.000   0.001   0.000  -6.435  -0.000   0.000   0.001   0.000
 -0.000   0.000   0.000  -0.000  -6.432  -0.000   0.000   0.000
 -6.575   0.000  -0.001   0.000  -0.000  -6.680   0.000  -0.001
  0.000  -6.571   0.000   0.001   0.000   0.000  -6.675   0.000
 -0.001   0.000  -6.562   0.000   0.000  -0.001   0.000  -6.667
  0.000   0.001   0.000  -6.571  -0.000   0.000   0.001   0.000
 -0.000   0.000   0.000  -0.000  -6.568  -0.000   0.000   0.000
  0.001   0.000   0.000   0.000   0.000   0.001   0.000   0.000
  0.001   0.001   0.000   0.001   0.000   0.001   0.001   0.000
 -0.006   0.000  -0.004  -0.000  -0.007  -0.006   0.000  -0.004
 -0.000   0.006   0.000  -0.006  -0.000  -0.000   0.006   0.000
  0.006  -0.000   0.004   0.000  -0.007   0.006  -0.000   0.004
 -0.008   0.000  -0.005  -0.000  -0.008  -0.008   0.000  -0.005
 -0.000   0.008   0.000  -0.008   0.000  -0.000   0.007   0.000
  0.008  -0.000   0.005   0.000  -0.008   0.007  -0.000   0.005
 total augmentation occupancy for first ion, spin component:           1
  2.276   0.015  -0.143   0.015  -0.001  -0.292  -0.016   0.143  -0.016   0.001  -0.138   0.024   0.043  -0.000  -0.042  -0.005
  0.015   2.299   0.018  -0.016  -0.037  -0.016  -0.314  -0.015   0.008   0.040  -0.057   0.012   0.010  -0.048   0.002  -0.001
 -0.143   0.018   4.235   0.019   0.001   0.143  -0.015  -2.070  -0.017  -0.001  -0.134   0.016  -0.105   0.003   0.105   0.003
  0.015  -0.016   0.019   2.300   0.040  -0.016   0.008  -0.016  -0.314  -0.043  -0.061   0.013  -0.002   0.048  -0.012   0.000
 -0.001  -0.037   0.001   0.040   3.914   0.001   0.040  -0.001  -0.043  -1.761  -0.000   0.000  -0.159  -0.005  -0.160   0.005
 -0.292  -0.016   0.143  -0.016   0.001   0.290   0.017  -0.142   0.018  -0.001   0.125  -0.027  -0.030   0.000   0.030   0.002
 -0.016  -0.314  -0.015   0.008   0.040   0.017   0.311   0.013  -0.001  -0.042   0.051  -0.013  -0.009   0.036  -0.001   0.001
  0.143  -0.015  -2.070  -0.016  -0.001  -0.142   0.013   1.906   0.014   0.001   0.121  -0.021   0.096  -0.003  -0.096  -0.006
 -0.016   0.008  -0.017  -0.314  -0.043   0.018  -0.001   0.014   0.311   0.045   0.054  -0.013   0.002  -0.036   0.010  -0.000
  0.001   0.040  -0.001  -0.043  -1.761  -0.001  -0.042   0.001   0.045   1.610   0.000  -0.000   0.147   0.005   0.148  -0.009
 -0.138  -0.057  -0.134  -0.061  -0.000   0.125   0.051   0.121   0.054   0.000   1.438  -0.308  -0.049  -0.001   0.049   0.004
  0.024   0.012   0.016   0.013   0.000  -0.027  -0.013  -0.021  -0.013  -0.000  -0.308   0.070   0.010   0.000  -0.010  -0.001
  0.043   0.010  -0.105  -0.002  -0.159  -0.030  -0.009   0.096   0.002   0.147  -0.049   0.010   0.085   0.003   0.009  -0.006
 -0.000  -0.048   0.003   0.048  -0.005   0.000   0.036  -0.003  -0.036   0.005  -0.001   0.000   0.003   0.098   0.003  -0.000
 -0.042   0.002   0.105  -0.012  -0.160   0.030  -0.001  -0.096   0.010   0.148   0.049  -0.010   0.009   0.003   0.085  -0.001
 -0.005  -0.001   0.003   0.000   0.005   0.002   0.001  -0.006  -0.000  -0.009   0.004  -0.001  -0.006  -0.000  -0.001   0.000
  0.000   0.005  -0.000  -0.005   0.000  -0.000  -0.002   0.000   0.002  -0.000   0.000  -0.000  -0.000  -0.007  -0.000   0.000
  0.005  -0.000  -0.003   0.001   0.005  -0.002   0.000   0.006  -0.001  -0.009  -0.004   0.001  -0.001  -0.000  -0.006   0.000


------------------------ aborting loop because EDIFF is reached ----------------------------------------


 


 total charge     
 
# of ion       s       p       d       tot
------------------------------------------
    1        0.241   0.152   9.320   9.712
    2        0.242   0.152   9.319   9.713
    3        0.240   0.150   9.320   9.711
    4        0.240   0.151   9.320   9.711
    5        0.240   0.151   9.320   9.711
    6        0.240   0.150   9.320   9.711
    7        0.241   0.151   9.320   9.712
    8        0.240   0.151   9.320   9.712
    9        1.834   1.404   0.138   3.376
   10        1.834   1.404   0.138   3.376
   11        1.834   1.404   0.138   3.376
   12        1.834   1.404   0.138   3.375
   13        1.834   1.404   0.138   3.375
   14        1.834   1.404   0.138   3.375
   15        1.834   1.404   0.138   3.376
   16        1.834   1.404   0.138   3.375
   17        1.515   2.743   0.016   4.273
   18        1.515   2.743   0.016   4.273
   19        1.518   2.744   0.012   4.274
   20        1.518   2.744   0.012   4.274
   21        1.518   2.744   0.012   4.274
   22        1.518   2.744   0.012   4.274
   23        1.515   2.743   0.016   4.273
   24        1.515   2.743   0.016   4.273
   25        1.518   2.744   0.012   4.274
   26        1.518   2.744   0.012   4.274
   27        1.515   2.743   0.016   4.273
   28        1.515   2.743   0.016   4.273
   29        1.515   2.743   0.016   4.273
   30        1.515   2.743   0.016   4.273
   31        1.518   2.744   0.012   4.274
   32        1.518   2.744   0.012   4.274
   33        1.515   2.742   0.016   4.273
   34        1.515   2.742   0.016   4.273
   35        1.518   2.744   0.012   4.274
   36        1.518   2.744   0.012   4.274
   37        1.518   2.744   0.012   4.274
   38        1.518   2.744   0.012   4.274
   39        1.515   2.742   0.016   4.273
   40        1.515   2.742   0.016   4.273
   41        1.518   2.744   0.012   4.274
   42        1.518   2.744   0.012   4.274
   43        1.515   2.743   0.016   4.273
   44        1.515   2.743   0.016   4.273
   45        1.515   2.743   0.016   4.273
   46        1.515   2.743   0.016   4.273
   47        1.518   2.744   0.012   4.274
   48        1.518   2.744   0.012   4.274
--------------------------------------------------
tot         65.117 100.224  76.108 241.449
 


--------------------------------------------------------------------------------------------------------



  FREE ENERGIE OF THE ION-ELECTRON SYSTEM (eV)
  ---------------------------------------------------
  free  energy   TOTEN  =      -120.11720121 eV

  energy  without entropy=     -120.11720121  energy(sigma->0) =     -120.11720121
 


--------------------------------------------------------------------------------------------------------




--------------------------------------------------------------------------------------------------------


 writing wavefunctions
     LOOP+:  cpu time  114.3190: real time  114.3501
    4ORBIT:  cpu time    0.0000: real time    0.0000
 


 total charge     
 
# of ion       s       p       d       tot
------------------------------------------
    1        0.241   0.152   9.320   9.712
    2        0.242   0.152   9.319   9.713
    3        0.240   0.150   9.320   9.711
    4        0.240   0.151   9.320   9.711
    5        0.240   0.151   9.320   9.711
    6        0.240   0.150   9.320   9.711
    7        0.241   0.151   9.320   9.712
    8        0.240   0.151   9.320   9.712
    9        1.834   1.404   0.138   3.376
   10        1.834   1.404   0.138   3.376
   11        1.834   1.404   0.138   3.376
   12        1.834   1.404   0.138   3.375
   13        1.834   1.404   0.138   3.375
   14        1.834   1.404   0.138   3.375
   15        1.834   1.404   0.138   3.376
   16        1.834   1.404   0.138   3.375
   17        1.515   2.743   0.016   4.273
   18        1.515   2.743   0.016   4.273
   19        1.518   2.744   0.012   4.274
   20        1.518   2.744   0.012   4.274
   21        1.518   2.744   0.012   4.274
   22        1.518   2.744   0.012   4.274
   23        1.515   2.743   0.016   4.273
   24        1.515   2.743   0.016   4.273
   25        1.518   2.744   0.012   4.274
   26        1.518   2.744   0.012   4.274
   27        1.515   2.743   0.016   4.273
   28        1.515   2.743   0.016   4.273
   29        1.515   2.743   0.016   4.273
   30        1.515   2.743   0.016   4.273
   31        1.518   2.744   0.012   4.274
   32        1.518   2.744   0.012   4.274
   33        1.515   2.742   0.016   4.273
   34        1.515   2.742   0.016   4.273
   35        1.518   2.744   0.012   4.274
   36        1.518   2.744   0.012   4.274
   37        1.518   2.744   0.012   4.274
   38        1.518   2.744   0.012   4.274
   39        1.515   2.742   0.016   4.273
   40        1.515   2.742   0.016   4.273
   41        1.518   2.744   0.012   4.274
   42        1.518   2.744   0.012   4.274
   43        1.515   2.743   0.016   4.273
   44        1.515   2.743   0.016   4.273
   45        1.515   2.743   0.016   4.273
   46        1.515   2.743   0.016   4.273
   47        1.518   2.744   0.012   4.274
   48        1.518   2.744   0.012   4.274
--------------------------------------------------
tot         65.117 100.224  76.108 241.449
 
 BZINTS: Fermi energy:    1.973881;  352.000000 electrons
         Band energy:-0.733426E+03;  BLOECHL correction:    0.000000

 total amount of memory used by VASP MPI-rank0  2748304. kBytes
=======================================================================

   base      :      30000. kBytes
   nonl-proj :     299765. kBytes
   fftplans  :      34720. kBytes
   grid      :      70000. kBytes
   one-center:        746. kBytes
   wavefun   :    2313073. kBytes
 
  
  
 General timing and accounting informations for this job:
 ========================================================
  
                  Total CPU time used (sec):      153.412
                            User time (sec):      148.914
                          System time (sec):        4.497
                         Elapsed time (sec):      155.317
  
                   Maximum memory used (kb):     4290392.
                   Average memory used (kb):           0.
  
                          Minor page faults:       423112
                          Major page faults:            0
                 Voluntary context switches:         2376
