 vasp.6.1.0 28Jan20 (build Jan 13 2021 21:44:47) complex                        
  
 executed on             LinuxIFC date 2021.09.12  19:34:10
 running on    9 total cores
 distrk:  each k-point on    1 cores,    9 groups
 distr:  one band on NCORE=   1 cores,    1 groups


--------------------------------------------------------------------------------------------------------


 INCAR:
 POTCAR:    PAW_PBE Ag 02Apr2005                  
 POTCAR:    PAW_PBE Bi 08Apr2002                  
 POTCAR:    PAW_PBE I 08Apr2002                   
 -----------------------------------------------------------------------------
|                                                                             |
|           W    W    AA    RRRRR   N    N  II  N    N   GGGG   !!!           |
|           W    W   A  A   R    R  NN   N  II  NN   N  G    G  !!!           |
|           W    W  A    A  R    R  N N  N  II  N N  N  G       !!!           |
|           W WW W  AAAAAA  RRRRR   N  N N  II  N  N N  G  GGG   !            |
|           WW  WW  A    A  R   R   N   NN  II  N   NN  G    G                |
|           W    W  A    A  R    R  N    N  II  N    N   GGGG   !!!           |
|                                                                             |
|     For optimal performance we recommend to set                             |
|       NCORE = 4 - approx SQRT(number of cores).                             |
|     NCORE specifies how many cores store one orbital (NPAR=cpu/NCORE).      |
|     This setting can greatly improve the performance of VASP for DFT.       |
|     The default, NCORE=1 might be grossly inefficient on modern             |
|     multi-core architectures or massively parallel machines. Do your        |
|     own testing!!!!                                                         |
|     Unfortunately you need to use the default for GW and RPA                |
|     calculations (for HF NCORE is supported but not extensively tested      |
|     yet).                                                                   |
|                                                                             |
 -----------------------------------------------------------------------------

 POTCAR:    PAW_PBE Ag 02Apr2005                  
   VRHFIN =Ag : s1 d10                                                                              
   LEXCH  = PE                                                                                      
   EATOM  =  1037.2675 eV,   76.2370 Ry                                                             
                                                                                                    
   TITEL  = PAW_PBE Ag 02Apr2005                                                                    
   LULTRA =        F    use ultrasoft PP ?                                                          
   IUNSCR =        1    unscreen: 0-lin 1-nonlin 2-no                                               
   RPACOR =    2.000    partial core radius                                                         
   POMASS =  107.868; ZVAL   =   11.000    mass and valenz                                          
   RCORE  =    2.500    outmost cutoff radius                                                       
   RWIGS  =    2.840; RWIGS  =    1.503    wigner-seitz radius (au A)                               
   ENMAX  =  249.844; ENMIN  =  187.383 eV                                                          
   ICORE  =        3    local potential                                                             
   LCOR   =        T    correct aug charges                                                         
   LPAW   =        T    paw PP                                                                      
   EAUG   =  412.496                                                                                
   DEXC   =    0.000                                                                                
   RMAX   =    2.560    core radius for proj-oper                                                   
   RAUG   =    1.300    factor for augmentation sphere                                              
   RDEP   =    2.576    radius for radial grids                                                     
   RDEPT  =    2.072    core radius for aug-charge                                                  
                                                                                                    
   Atomic configuration                                                                             
   12 entries                                                                                       
     n  l   j            E        occ.                                                              
     1  0  0.50    -25324.9161   2.0000                                                             
     2  0  0.50     -3728.5341   2.0000                                                             
     2  1  1.50     -3344.0404   6.0000                                                             
     3  0  0.50      -683.5581   2.0000                                                             
     3  1  1.50      -557.3225   6.0000                                                             
     3  2  2.50      -358.3853  10.0000                                                             
     4  0  0.50       -95.0341   2.0000                                                             
     4  1  1.50       -58.5511   6.0000                                                             
     4  2  2.50        -7.4440  10.0000                                                             
     5  0  0.50        -4.4045   1.0000                                                             
     5  1  0.50        -1.3606   0.0000                                                             
     4  3  2.50        -1.3606   0.0000                                                             
   Description                                                                                      
     l       E           TYP  RCUT    TYP  RCUT                                                     
     2     -7.4439781     23  2.400                                                                 
     2     -8.8045607     23  2.400                                                                 
     0     -4.4044681     23  2.400                                                                 
     0      1.9520038     23  2.400                                                                 
     1     -1.3605826     23  2.500                                                                 
     1     27.2116520     23  2.500                                                                 
     3     -4.0817478     23  2.400                                                                 
  local pseudopotential read in
  partial core-charges read in
  partial kinetic energy density read in
  atomic valenz-charges read in
  non local Contribution for L=           2  read in
    real space projection operators read in
  non local Contribution for L=           2  read in
    real space projection operators read in
  non local Contribution for L=           0  read in
    real space projection operators read in
  non local Contribution for L=           0  read in
    real space projection operators read in
  non local Contribution for L=           1  read in
    real space projection operators read in
  non local Contribution for L=           1  read in
    real space projection operators read in
    PAW grid and wavefunctions read in
 
   number of l-projection  operators is LMAX  =           6
   number of lm-projection operators is LMMAX =          18
 
 POTCAR:    PAW_PBE Bi 08Apr2002                  
   VRHFIN =Bi:                                                                                      
   LEXCH  = PE                                                                                      
   EATOM  =   150.8133 eV,   11.0845 Ry                                                             
                                                                                                    
   TITEL  = PAW_PBE Bi 08Apr2002                                                                    
   LULTRA =        F    use ultrasoft PP ?                                                          
   IUNSCR =        1    unscreen: 0-lin 1-nonlin 2-no                                               
   RPACOR =    2.200    partial core radius                                                         
   POMASS =  208.980; ZVAL   =    5.000    mass and valenz                                          
   RCORE  =    3.000    outmost cutoff radius                                                       
   RWIGS  =    3.090; RWIGS  =    1.635    wigner-seitz radius (au A)                               
   ENMAX  =  105.037; ENMIN  =   78.777 eV                                                          
   ICORE  =        3    local potential                                                             
   LCOR   =        T    correct aug charges                                                         
   LPAW   =        T    paw PP                                                                      
   EAUG   =  265.427                                                                                
   DEXC   =    0.000                                                                                
   RMAX   =    3.067    core radius for proj-oper                                                   
   RAUG   =    1.300    factor for augmentation sphere                                              
   RDEP   =    3.012    radius for radial grids                                                     
   RDEPT  =    2.604    core radius for aug-charge                                                  
                                                                                                    
   Atomic configuration                                                                             
   17 entries                                                                                       
     n  l   j            E        occ.                                                              
     1  0  0.50    -90639.6582   2.0000                                                             
     2  0  0.50    -16282.4667   2.0000                                                             
     2  1  1.50    -13922.8287   6.0000                                                             
     3  0  0.50     -3930.4763   2.0000                                                             
     3  1  1.50     -3256.7013   6.0000                                                             
     3  2  2.50     -2581.6169  10.0000                                                             
     4  0  0.50      -902.2614   2.0000                                                             
     4  1  1.50      -681.5915   6.0000                                                             
     4  2  2.50      -429.8249  10.0000                                                             
     4  3  3.50      -152.6004  14.0000                                                             
     5  0  0.50      -157.7156   2.0000                                                             
     5  1  1.50       -95.8054   6.0000                                                             
     5  2  2.50       -27.0806  10.0000                                                             
     6  0  0.50       -14.4732   2.0000                                                             
     6  1  1.50        -4.5702   3.0000                                                             
     6  2  2.50        -2.7212   0.0000                                                             
     5  3  2.50        -2.7212   0.0000                                                             
   Description                                                                                      
     l       E           TYP  RCUT    TYP  RCUT                                                     
     0    -14.4732299     23  3.000                                                                 
     0    -12.2452434     23  3.000                                                                 
     1     -4.5701666     23  3.000                                                                 
     1    -13.6058260     23  3.000                                                                 
     2     -2.7211652     23  3.000                                                                 
     3     -1.3605826      7  3.000                                                                 
  local pseudopotential read in
  partial core-charges read in
  partial kinetic energy density read in
  kinetic energy density of atom read in
  atomic valenz-charges read in
  non local Contribution for L=           0  read in
    real space projection operators read in
  non local Contribution for L=           0  read in
    real space projection operators read in
  non local Contribution for L=           1  read in
    real space projection operators read in
  non local Contribution for L=           1  read in
    real space projection operators read in
  non local Contribution for L=           2  read in
    real space projection operators read in
    PAW grid and wavefunctions read in
 
   number of l-projection  operators is LMAX  =           5
   number of lm-projection operators is LMMAX =          13
 
 POTCAR:    PAW_PBE I 08Apr2002                   
   VRHFIN =I : s2p5                                                                                 
   LEXCH  = PE                                                                                      
   EATOM  =   315.8678 eV,   23.2156 Ry                                                             
                                                                                                    
   TITEL  = PAW_PBE I 08Apr2002                                                                     
   LULTRA =        F    use ultrasoft PP ?                                                          
   IUNSCR =        1    unscreen: 0-lin 1-nonlin 2-no                                               
   RPACOR =    2.200    partial core radius                                                         
   POMASS =  126.904; ZVAL   =    7.000    mass and valenz                                          
   RCORE  =    2.300    outmost cutoff radius                                                       
   RWIGS  =    2.810; RWIGS  =    1.487    wigner-seitz radius (au A)                               
   ENMAX  =  175.647; ENMIN  =  131.735 eV                                                          
   ICORE  =        3    local potential                                                             
   LCOR   =        T    correct aug charges                                                         
   LPAW   =        T    paw PP                                                                      
   EAUG   =  370.139                                                                                
   DEXC   =    0.000                                                                                
   RMAX   =    2.359    core radius for proj-oper                                                   
   RAUG   =    1.300    factor for augmentation sphere                                              
   RDEP   =    2.392    radius for radial grids                                                     
   RDEPT  =    2.170    core radius for aug-charge                                                  
                                                                                                    
   Atomic configuration                                                                             
   13 entries                                                                                       
     n  l   j            E        occ.                                                              
     1  0  0.50    -32976.3739   2.0000                                                             
     2  0  0.50     -5094.5933   2.0000                                                             
     2  1  1.50     -4572.0131   6.0000                                                             
     3  0  0.50     -1028.2813   2.0000                                                             
     3  1  1.50      -859.0250   6.0000                                                             
     3  2  2.50      -605.7620  10.0000                                                             
     4  0  0.50      -180.5540   2.0000                                                             
     4  1  1.50      -127.5306   6.0000                                                             
     4  2  2.50       -50.2720  10.0000                                                             
     5  0  0.50       -17.4058   2.0000                                                             
     5  1  0.50        -7.0851   5.0000                                                             
     5  2  1.50        -7.0750   0.0000                                                             
     4  3  2.50        -7.0750   0.0000                                                             
   Description                                                                                      
     l       E           TYP  RCUT    TYP  RCUT                                                     
     0    -17.4058016     23  2.300                                                                 
     0    -18.7663842     23  2.300                                                                 
     1     -7.0850686     23  2.300                                                                 
     1     -4.2150896     23  2.300                                                                 
     2     -7.0750295     23  2.300                                                                 
     3     -1.3605826     23  2.300                                                                 
  local pseudopotential read in
  partial core-charges read in
  partial kinetic energy density read in
  atomic valenz-charges read in
  non local Contribution for L=           0  read in
    real space projection operators read in
  non local Contribution for L=           0  read in
    real space projection operators read in
  non local Contribution for L=           1  read in
    real space projection operators read in
  non local Contribution for L=           1  read in
    real space projection operators read in
  non local Contribution for L=           2  read in
    real space projection operators read in
    PAW grid and wavefunctions read in
 
   number of l-projection  operators is LMAX  =           5
   number of lm-projection operators is LMMAX =          13
 
 -----------------------------------------------------------------------------
|                                                                             |
|               ----> ADVICE to this user running VASP <----                  |
|                                                                             |
|     You have a (more or less) 'large supercell' and for larger cells it     |
|     might be more efficient to use real-space projection operators.         |
|     Therefore, try LREAL= Auto in the INCAR file.                           |
|     Mind: For very accurate calculation, you might also keep the            |
|     reciprocal projection scheme (i.e. LREAL=.FALSE.).                      |
|                                                                             |
 -----------------------------------------------------------------------------

  PAW_PBE Ag 02Apr2005                  :
 energy of atom  1       EATOM=-1037.2675
 kinetic energy error for atom=    0.0686 (will be added to EATOM!!)
  PAW_PBE Bi 08Apr2002                  :
 energy of atom  2       EATOM= -150.8133
 kinetic energy error for atom=    0.0004 (will be added to EATOM!!)
  PAW_PBE I 08Apr2002                   :
 energy of atom  3       EATOM= -315.8678
 kinetic energy error for atom=    0.0044 (will be added to EATOM!!)
 
 
 POSCAR: Generation Seed Number
  positions in direct lattice
  velocities in cartesian coordinates
 exchange correlation table for  LEXCH =        8
   RHO(1)=    0.500       N(1)  =     2000
   RHO(2)=  100.500       N(2)  =     4000
 


--------------------------------------------------------------------------------------------------------


 ion  position               nearest neighbor table
   1  0.023  0.989  0.996-  27 2.94  17 2.99  34 3.07  33 3.13  25 3.18  21 3.56
   2  0.499  0.502  0.998-  31 3.02  40 3.03  39 3.07  29 3.07  19 3.26  23 3.28
   3  0.977  0.505  0.512-  36 2.94  24 2.99  28 3.07  26 3.12  35 3.19  20 3.56
   4  0.996  0.747  0.753-  36 3.02  27 3.02  28 3.07  34 3.08  48 3.23  44 3.33
   5  0.250  0.976  0.225-  33 2.96  37 2.96  17 2.97  43 2.97
   6  0.477  0.745  0.241-  31 2.94  43 2.99  39 3.07  32 3.15  37 3.15  47 3.57
   7  0.523  0.260  0.755-  40 2.94  46 2.99  29 3.07  30 3.14  38 3.16  42 3.56
   8  0.751  0.275  0.524-  26 2.96  30 2.97  24 2.97  46 2.97
   9  0.254  0.249  0.999-  29 3.03  17 3.06  42 3.12  41 3.14  25 3.19  19 3.20
  10  0.750  0.750  0.000-  31 3.11  23 3.11  27 3.11  48 3.12  47 3.14  21 3.14
  11  0.000  0.249  0.252-  33 3.07  26 3.07  41 3.13  45 3.14  25 3.18  35 3.18
  12  0.500  0.003  0.498-  37 3.07  30 3.07  18 3.14  22 3.14  32 3.19  38 3.19
  13  0.754  0.002  0.752-  34 3.03  46 3.05  21 3.13  22 3.14  38 3.19  48 3.21
  14  0.747  0.501  0.251-  39 3.03  24 3.06  47 3.13  45 3.14  35 3.19  23 3.20
  15  0.250  0.501  0.750-  44 3.11  40 3.11  36 3.11  19 3.11  20 3.14  42 3.14
  16  0.247  0.749  0.499-  28 3.03  43 3.06  20 3.13  18 3.14  32 3.20  44 3.20
  17  0.257  0.009  0.994-   5 2.97   1 2.99   9 3.06
  18  0.254  0.996  0.510-  12 3.14  16 3.14
  19  0.243  0.500  0.995-  15 3.11   9 3.20   2 3.26
  20  0.257  0.503  0.504-  16 3.13  15 3.14   3 3.56
  21  0.743  0.997  0.997-  13 3.13  10 3.14   1 3.56
  22  0.747  0.991  0.505-  12 3.14  13 3.14
  23  0.757  0.505  1.000-  10 3.11  14 3.20   2 3.28
  24  0.743  0.506  0.492-   8 2.97   3 2.99  14 3.06
  25  0.003  0.238  0.002-  11 3.18   1 3.18   9 3.19
  26  0.981  0.260  0.492-   8 2.96  11 3.07   3 3.12
  27  0.994  0.760  0.990-   1 2.94   4 3.02  10 3.11
  28  0.009  0.744  0.512-  16 3.03   3 3.07   4 3.07
  29  0.492  0.261  0.995-   9 3.03   7 3.07   2 3.07
  30  0.521  0.243  0.509-   8 2.97  12 3.07   7 3.14
  31  0.506  0.740  0.011-   6 2.94   2 3.02  10 3.11
  32  0.498  0.752  0.487-   6 3.15  12 3.19  16 3.20
  33  0.020  0.008  0.241-   5 2.96  11 3.07   1 3.13
  34  0.992  0.989  0.756-  13 3.03   1 3.07   4 3.08
  35  0.998  0.498  0.262-  11 3.18   3 3.19  14 3.19
  36  0.006  0.510  0.741-   3 2.94   4 3.02  15 3.11
  37  0.480  0.992  0.258-   5 2.96  12 3.07   6 3.15
  38  0.503  0.013  0.748-   7 3.16  12 3.19  13 3.19
  39  0.509  0.505  0.239-  14 3.03   2 3.07   6 3.07
  40  0.495  0.490  0.761-   7 2.94   2 3.03  15 3.11
  41  0.247  0.260  0.246-  11 3.13   9 3.14
  42  0.243  0.254  0.753-   9 3.12  15 3.14   7 3.56
  43  0.243  0.745  0.259-   5 2.97   6 2.99  16 3.06
  44  0.258  0.745  0.750-  15 3.11  16 3.20   4 3.33
  45  0.754  0.255  0.241-  11 3.14  14 3.14
  46  0.758  0.242  0.755-   8 2.97   7 2.99  13 3.05
  47  0.757  0.747  0.247-  14 3.13  10 3.14   6 3.57
  48  0.742  0.750  0.756-  10 3.12  13 3.21   4 3.23
 
 -----------------------------------------------------------------------------
|                                                                             |
|           W    W    AA    RRRRR   N    N  II  N    N   GGGG   !!!           |
|           W    W   A  A   R    R  NN   N  II  NN   N  G    G  !!!           |
|           W    W  A    A  R    R  N N  N  II  N N  N  G       !!!           |
|           W WW W  AAAAAA  RRRRR   N  N N  II  N  N N  G  GGG   !            |
|           WW  WW  A    A  R   R   N   NN  II  N   NN  G    G                |
|           W    W  A    A  R    R  N    N  II  N    N   GGGG   !!!           |
|                                                                             |
|     The determination of the symmetry of your systems shows a strong        |
|     dependence on the tolerance parameter SYMPREC. This is often the        |
|     result of "noise" in the structural parameters (lattice vectors         |
|     and/or ionic positions). Set NWRITE=3 for more details.                 |
|                                                                             |
 -----------------------------------------------------------------------------

  LATTYP: Found a base centered monoclinic cell.
 ALAT       =    53.9593920003
 B/A-ratio  =     0.3332901819
 C/A-ratio  =     0.2357226026
 COS(beta)  =    -0.9428061404
  
  Lattice vectors:
  
 A1 = (   0.0015724010, -12.7154990961,  25.4376944236)
 A2 = ( -12.7154494377,   0.0008874965,  25.4377610300)
 A3 = (  -0.0012100529,  -0.0009998160, -12.7194482191)


Analysis of symmetry for initial positions (statically):
=====================================================================
 Subroutine PRICEL returns:
 Original cell was already a primitive cell.
 

 Routine SETGRP: Setting up the symmetry group for a 
 base centered monoclinic supercell.


 Subroutine GETGRP returns: Found  1 space group operations
 (whereof  1 operations were pure point group operations)
 out of a pool of  4 trial point group operations.


The static configuration has the point symmetry C_1 .


Analysis of symmetry for dynamics (positions and initial velocities):
=====================================================================
 Subroutine PRICEL returns:
 Original cell was already a primitive cell.
 

 Routine SETGRP: Setting up the symmetry group for a 
 base centered monoclinic supercell.


 Subroutine GETGRP returns: Found  1 space group operations
 (whereof  1 operations were pure point group operations)
 out of a pool of  4 trial point group operations.


The dynamic configuration has the point symmetry C_1 .


 Subroutine INISYM returns: Found  1 space group operations
 (whereof  1 operations are pure point group operations),
 and found     1 'primitive' translations


----------------------------------------------------------------------------------------

                                     Primitive cell                                     

  volume of cell :    2057.2370

  direct lattice vectors                    reciprocal lattice vectors
    12.717869544  0.001112135  0.001135408     0.078629523 -0.000005240 -0.000007480
     0.000847705 12.717498728  0.001202015    -0.000006876  0.078631815 -0.000006180
     0.001210053  0.000999816 12.719448219    -0.000007018 -0.000007430  0.078619764

  length of vectors
    12.717869643 12.717498813 12.719448316     0.078629523  0.078631816  0.078619765

  position of ions in fractional coordinates (direct lattice)
     0.023404329  0.989073943  0.995627128
     0.499115987  0.502492327  0.998015761
     0.976946523  0.504516906  0.511509180
     0.995929313  0.747012231  0.752833177
     0.250078599  0.975608090  0.224947547
     0.476772371  0.744667322  0.240573866
     0.523444212  0.260368899  0.755011730
     0.751476430  0.274912661  0.524352433
     0.253692463  0.248824960  0.998676254
     0.749949152  0.749917520  0.000495326
     0.000473295  0.248514445  0.251763738
     0.500222094  0.002731007  0.497683006
     0.753634007  0.001731623  0.751624885
     0.746753535  0.501231636  0.251277085
     0.250356234  0.500566509  0.750345340
     0.246669303  0.748879989  0.499002355
     0.257489528  0.008609873  0.994167047
     0.253883712  0.995669102  0.509798410
     0.242973136  0.500397429  0.995018020
     0.256925506  0.503366422  0.503669082
     0.743355352  0.996744195  0.997090981
     0.746664196  0.990913262  0.504830342
     0.757312127  0.505366341  0.999879743
     0.743002712  0.505904123  0.491507786
     0.002745893  0.238111427  0.002118328
     0.981144509  0.259662708  0.492423774
     0.994221668  0.759830446  0.990282422
     0.008501237  0.744128334  0.511511713
     0.491835306  0.260877997  0.994652166
     0.521016770  0.242861628  0.508677718
     0.505742711  0.739805361  0.011211990
     0.497748549  0.752392937  0.486840812
     0.020201123  0.007950950  0.240851525
     0.991823975  0.988985573  0.756242946
     0.997601045  0.498272540  0.262029184
     0.006007551  0.510172962  0.740717120
     0.479900621  0.992047529  0.257593936
     0.502792771  0.013042664  0.748009068
     0.508539169  0.505062641  0.239423049
     0.494587376  0.489653115  0.760567129
     0.246601463  0.259610699  0.245557095
     0.243286381  0.253530368  0.753492001
     0.242702460  0.744833512  0.258596808
     0.258024008  0.744812934  0.750105916
     0.754009144  0.254561754  0.241046522
     0.757694642  0.241777514  0.755466553
     0.757077519  0.746782869  0.246900414
     0.742341120  0.749945363  0.755575179

  ion indices of the primitive-cell ions
   primitive index   ion index
                 1           1
                 2           2
                 3           3
                 4           4
                 5           5
                 6           6
                 7           7
                 8           8
                 9           9
                10          10
                11          11
                12          12
                13          13
                14          14
                15          15
                16          16
                17          17
                18          18
                19          19
                20          20
                21          21
                22          22
                23          23
                24          24
                25          25
                26          26
                27          27
                28          28
                29          29
                30          30
                31          31
                32          32
                33          33
                34          34
                35          35
                36          36
                37          37
                38          38
                39          39
                40          40
                41          41
                42          42
                43          43
                44          44
                45          45
                46          46
                47          47
                48          48

----------------------------------------------------------------------------------------

 
 
 KPOINTS: agbii                                   

Automatic generation of k-mesh.
Space group operators:
 irot       det(A)        alpha          n_x          n_y          n_z        tau_x        tau_y        tau_z
    1     1.000000     0.000000     1.000000     0.000000     0.000000     0.000000     0.000000     0.000000
 TETIRR: Found    192 inequivalent tetrahedra from      384
 
 Subroutine IBZKPT returns following result:
 ===========================================
 
 Found     36 irreducible k-points:
 
 Following reciprocal coordinates:
            Coordinates               Weight
  0.000000  0.000000  0.000000      1.000000
  0.250000  0.000000  0.000000      2.000000
 -0.000000 -0.250000  0.000000      2.000000
  0.500000  0.000000  0.000000      1.000000
 -0.000000  0.500000  0.000000      1.000000
  0.250000  0.250000 -0.000000      2.000000
  0.500000  0.250000  0.000000      2.000000
 -0.250000  0.500000  0.000000      2.000000
 -0.250000  0.250000 -0.000000      2.000000
  0.500000  0.500000 -0.000000      1.000000
 -0.000000  0.000000  0.250000      2.000000
  0.250000  0.000000  0.250000      2.000000
  0.000000 -0.250000 -0.250000      2.000000
  0.500000  0.000000  0.250000      2.000000
  0.000000  0.500000 -0.250000      2.000000
 -0.250000 -0.000000  0.250000      2.000000
 -0.000000  0.250000 -0.250000      2.000000
  0.250000  0.250000  0.250000      2.000000
  0.500000  0.250000  0.250000      2.000000
 -0.250000  0.500000 -0.250000      2.000000
 -0.250000  0.250000  0.250000      2.000000
 -0.250000  0.250000 -0.250000      2.000000
  0.500000  0.500000  0.250000      2.000000
 -0.250000  0.500000  0.250000      2.000000
  0.500000  0.250000 -0.250000      2.000000
 -0.250000 -0.250000  0.250000      2.000000
 -0.000000  0.000000  0.500000      1.000000
  0.250000  0.000000  0.500000      2.000000
 -0.000000 -0.250000  0.500000      2.000000
  0.500000  0.000000  0.500000      1.000000
 -0.000000  0.500000  0.500000      1.000000
  0.250000  0.250000  0.500000      2.000000
  0.500000  0.250000  0.500000      2.000000
 -0.250000  0.500000  0.500000      2.000000
 -0.250000  0.250000  0.500000      2.000000
  0.500000  0.500000  0.500000      1.000000
 
 Following cartesian coordinates:
            Coordinates               Weight
  0.000000  0.000000  0.000000      1.000000
  0.019657 -0.000001 -0.000002      2.000000
  0.000002 -0.019658  0.000002      2.000000
  0.039315 -0.000003 -0.000004      1.000000
 -0.000003  0.039316 -0.000003      1.000000
  0.019656  0.019657 -0.000003      2.000000
  0.039313  0.019655 -0.000005      2.000000
 -0.019661  0.039317 -0.000001      2.000000
 -0.019659  0.019659  0.000000      2.000000
  0.039311  0.039313 -0.000007      1.000000
 -0.000002 -0.000002  0.019655      2.000000
  0.019656 -0.000003  0.019653      2.000000
  0.000003 -0.019656 -0.019653      2.000000
  0.039313 -0.000004  0.019651      2.000000
 -0.000002  0.039318 -0.019658      2.000000
 -0.019659 -0.000001  0.019657      2.000000
  0.000000  0.019660 -0.019656      2.000000
  0.019654  0.019655  0.019652      2.000000
  0.039311  0.019653  0.019650      2.000000
 -0.019659  0.039319 -0.019656      2.000000
 -0.019661  0.019657  0.019655      2.000000
 -0.019657  0.019661 -0.019655      2.000000
  0.039310  0.039311  0.019648      2.000000
 -0.019663  0.039315  0.019654      2.000000
  0.039315  0.019657 -0.019660      2.000000
 -0.019657 -0.019659  0.019658      2.000000
 -0.000004 -0.000004  0.039310      1.000000
  0.019654 -0.000005  0.039308      2.000000
 -0.000002 -0.019662  0.039311      2.000000
  0.039311 -0.000006  0.039306      1.000000
 -0.000007  0.039312  0.039307      1.000000
  0.019652  0.019653  0.039306      2.000000
  0.039310  0.019652  0.039305      2.000000
 -0.019664  0.039314  0.039309      2.000000
 -0.019663  0.019656  0.039310      2.000000
  0.039308  0.039310  0.039303      1.000000
 


--------------------------------------------------------------------------------------------------------




 Dimension of arrays:
   k-points           NKPTS =     36   k-points in BZ     NKDIM =     36   number of bands    NBANDS=    211
   number of dos      NEDOS =   3000   number of ions     NIONS =     48
   non local maximal  LDIM  =      6   non local SUM 2l+1 LMDIM =     18
   total plane-waves  NPLWV = 125000
   max r-space proj   IRMAX =      1   max aug-charges    IRDMAX=   5987
   dimension x,y,z NGX =    50 NGY =   50 NGZ =   50
   dimension x,y,z NGXF=   100 NGYF=  100 NGZF=  100
   support grid    NGXF=   100 NGYF=  100 NGZF=  100
   ions per type =               8   8  32
   NGX,Y,Z   is equivalent  to a cutoff of   6.54,  6.54,  6.54 a.u.
   NGXF,Y,Z  is equivalent  to a cutoff of  13.07, 13.07, 13.07 a.u.

 SYSTEM =  unknown system                          
 POSCAR =  Generation Seed Number                  

 Startparameter for this run:
   NWRITE =      2    write-flag & timer
   PREC   = normal    normal or accurate (medium, high low for compatibility)
   ISTART =      1    job   : 0-new  1-cont  2-samecut
   ICHARG =      1    charge: 1-file 2-atom 10-const
   ISPIN  =      1    spin polarized calculation?
   LNONCOLLINEAR =      F non collinear calculations
   LSORBIT =      F    spin-orbit coupling
   INIWAV =      1    electr: 0-lowe 1-rand  2-diag
   LASPH  =      F    aspherical Exc in radial PAW
   METAGGA=      F    non-selfconsistent MetaGGA calc.

 Electronic Relaxation 1
   ENCUT  =  250.0 eV  18.37 Ry    4.29 a.u.  16.40 16.40 16.40*2*pi/ulx,y,z
   ENINI  =  250.0     initial cutoff
   ENAUG  =  412.5 eV  augmentation charge cutoff
   NELM   =     60;   NELMIN=  2; NELMDL=  0     # of ELM steps 
   EDIFF  = 0.1E-05   stopping-criterion for ELM
   LREAL  =      F    real-space projection
   NLSPLINE    = F    spline interpolate recip. space projectors
   LCOMPAT=      F    compatible to vasp.4.4
   GGA_COMPAT  = T    GGA compatible to vasp.4.4-vasp.4.6
   LMAXPAW     = -100 max onsite density
   LMAXMIX     =    4 max onsite mixed and CHGCAR
   VOSKOWN=      0    Vosko Wilk Nusair interpolation
   ROPT   =    0.00000   0.00000   0.00000
 Ionic relaxation
   EDIFFG = -.1E-01   stopping-criterion for IOM
   NSW    =      0    number of steps for IOM
   NBLOCK =      1;   KBLOCK =      1    inner block; outer block 
   IBRION =     -1    ionic relax: 0-MD 1-quasi-New 2-CG
   NFREE  =      0    steps in history (QN), initial steepest desc. (CG)
   ISIF   =     -1    stress and relaxation
   IWAVPR =     10    prediction:  0-non 1-charg 2-wave 3-comb
   ISYM   =      2    0-nonsym 1-usesym 2-fastsym
   LCORR  =      T    Harris-Foulkes like correction to forces

   POTIM  = 0.5000    time-step for ionic-motion
   TEIN   =    0.0    initial temperature
   TEBEG  =    0.0;   TEEND  =   0.0 temperature during run
   SMASS  =  -3.00    Nose mass-parameter (am)
   estimated Nose-frequenzy (Omega)   =  0.10E-29 period in steps = 0.13E+47 mass=  -0.370E-26a.u.
   SCALEE = 1.0000    scale energy and forces
   NPACO  =    256;   APACO  = 16.0  distance and # of slots for P.C.
   PSTRESS=    0.0 pullay stress

  Mass of Ions in am
   POMASS = 107.87208.98126.90
  Ionic Valenz
   ZVAL   =  11.00  5.00  7.00
  Atomic Wigner-Seitz radii
   RWIGS  =  -1.00 -1.00 -1.00
  virtual crystal weights 
   VCA    =   1.00  1.00  1.00
   NELECT =     352.0000    total number of electrons
   NUPDOWN=      -1.0000    fix difference up-down

 DOS related values:
   EMIN   =  10.00;   EMAX   =-10.00  energy-range for DOS
   EFERMI =   0.00
   ISMEAR =    -5;   SIGMA  =   0.20  broadening in eV -4-tet -1-fermi 0-gaus

 Electronic relaxation 2 (details)
   IALGO  =     38    algorithm
   LDIAG  =      T    sub-space diagonalisation (order eigenvalues)
   LSUBROT=      F    optimize rotation matrix (better conditioning)
   TURBO    =      0    0=normal 1=particle mesh
   IRESTART =      0    0=no restart 2=restart with 2 vectors
   NREBOOT  =      0    no. of reboots
   NMIN     =      0    reboot dimension
   EREF     =   0.00    reference energy to select bands
   IMIX   =      4    mixing-type and parameters
     AMIX     =   0.40;   BMIX     =  1.00
     AMIX_MAG =   1.60;   BMIX_MAG =  1.00
     AMIN     =   0.10
     WC   =   100.;   INIMIX=   1;  MIXPRE=   1;  MAXMIX= -45

 Intra band minimization:
   WEIMIN = 0.0000     energy-eigenvalue tresh-hold
   EBREAK =  0.12E-08  absolut break condition
   DEPER  =   0.30     relativ break condition  

   TIME   =   0.40     timestep for ELM

  volume/ion in A,a.u.               =      42.86       289.23
  Fermi-wavevector in a.u.,A,eV,Ry     =   0.908854  1.717486 11.238632  0.826016
  Thomas-Fermi vector in A             =   2.032830
 
 Write flags
   LWAVE        =      T    write WAVECAR
   LDOWNSAMPLE  =      F    k-point downsampling of WAVECAR
   LCHARG       =      T    write CHGCAR
   LVTOT        =      F    write LOCPOT, total local potential
   LVHAR        =      F    write LOCPOT, Hartree potential only
   LELF         =      F    write electronic localiz. function (ELF)
   LORBIT       =     10    0 simple, 1 ext, 2 COOP (PROOUT), +10 PAW based schemes


 Dipole corrections
   LMONO  =      F    monopole corrections only (constant potential shift)
   LDIPOL =      F    correct potential (dipole corrections)
   IDIPOL =      0    1-x, 2-y, 3-z, 4-all directions 
   EPSILON=  1.0000000 bulk dielectric constant

 Exchange correlation treatment:
   GGA     =    --    GGA type
   LEXCH   =     8    internal setting for exchange type
   VOSKOWN=      0    Vosko Wilk Nusair interpolation
   LHFCALC =     F    Hartree Fock is set to
   LHFONE  =     F    Hartree Fock one center treatment
   AEXX    =    0.0000 exact exchange contribution

 Linear response parameters
   LEPSILON=     F    determine dielectric tensor
   LRPA    =     F    only Hartree local field effects (RPA)
   LNABLA  =     F    use nabla operator in PAW spheres
   LVEL    =     F    velocity operator in full k-point grid
   LINTERFAST=   F  fast interpolation
   KINTER  =     0    interpolate to denser k-point grid
   CSHIFT  =0.1000    complex shift for real part using Kramers Kronig
   OMEGAMAX=  -1.0    maximum frequency
   DEG_THRESHOLD= 0.2000000E-02 threshold for treating states as degnerate
   RTIME   =   -0.100 relaxation time in fs
  (WPLASMAI=    0.000 imaginary part of plasma frequency in eV, 0.658/RTIME)
   DFIELD  = 0.0000000 0.0000000 0.0000000 field for delta impulse in time
 
 Orbital magnetization related:
   ORBITALMAG=     F  switch on orbital magnetization
   LCHIMAG   =     F  perturbation theory with respect to B field
   DQ        =  0.001000  dq finite difference perturbation B field
   LLRAUG    =     F  two centre corrections for induced B field



--------------------------------------------------------------------------------------------------------


 Static calculation
 charge density and potential will be updated during run
 non-spin polarized calculation
 Variant of blocked Davidson
 Davidson routine will perform the subspace rotation
 perform sub-space diagonalisation
    after iterative eigenvector-optimisation
 modified Broyden-mixing scheme, WC =      100.0
 initial mixing is a Kerker type mixing with AMIX =  0.4000 and BMIX =      1.0000
 Hartree-type preconditioning will be used
 using additional bands           35
 reciprocal scheme for non local part
 use partial core corrections
 calculate Harris-corrections to forces 
   (improved forces if not selfconsistent)
 use gradient corrections 
 use of overlap-Matrix (Vanderbilt PP)
 Fermi weights with tetrahedron method with Bloechl corrections


--------------------------------------------------------------------------------------------------------


  energy-cutoff  :      250.00
  volume of cell :     2057.24
      direct lattice vectors                 reciprocal lattice vectors
    12.717869544  0.001112135  0.001135408     0.078629523 -0.000005240 -0.000007480
     0.000847705 12.717498728  0.001202015    -0.000006876  0.078631815 -0.000006180
     0.001210053  0.000999816 12.719448219    -0.000007018 -0.000007430  0.078619764

  length of vectors
    12.717869643 12.717498813 12.719448316     0.078629523  0.078631816  0.078619765


 
 old parameters found on file WAVECAR:
  energy-cutoff  :      250.00
  volume of cell :     2057.24
      direct lattice vectors                 reciprocal lattice vectors
    12.717869544  0.001112135  0.001135408     0.078629523 -0.000005240 -0.000007480
     0.000847705 12.717498728  0.001202015    -0.000006876  0.078631815 -0.000006180
     0.001210053  0.000999816 12.719448219    -0.000007018 -0.000007430  0.078619764

  length of vectors

 
 k-points in units of 2pi/SCALE and weight: agbii                                   
   0.00000000  0.00000000  0.00000000       0.016
   0.01965738 -0.00000131 -0.00000187       0.031
   0.00000172 -0.01965795  0.00000155       0.031
   0.03931476 -0.00000262 -0.00000374       0.016
  -0.00000344  0.03931591 -0.00000309       0.016
   0.01965566  0.01965664 -0.00000342       0.031
   0.03931304  0.01965533 -0.00000529       0.031
  -0.01966082  0.03931722 -0.00000122       0.031
  -0.01965910  0.01965926  0.00000032       0.031
   0.03931132  0.03931329 -0.00000683       0.016
  -0.00000175 -0.00000186  0.01965494       0.031
   0.01965563 -0.00000317  0.01965307       0.031
   0.00000347 -0.01965610 -0.01965340       0.031
   0.03931301 -0.00000448  0.01965120       0.031
  -0.00000168  0.03931777 -0.01965803       0.031
  -0.01965914 -0.00000055  0.01965681       0.031
   0.00000004  0.01965981 -0.01965649       0.031
   0.01965391  0.01965479  0.01965153       0.031
   0.03931129  0.01965348  0.01964966       0.031
  -0.01965906  0.03931908 -0.01965616       0.031
  -0.01966085  0.01965741  0.01965527       0.031
  -0.01965735  0.01966112 -0.01965462       0.031
   0.03930957  0.03931143  0.01964811       0.031
  -0.01966257  0.03931536  0.01965372       0.031
   0.03931480  0.01965719 -0.01966023       0.031
  -0.01965742 -0.01965850  0.01965836       0.031
  -0.00000351 -0.00000372  0.03930988       0.016
   0.01965387 -0.00000503  0.03930801       0.031
  -0.00000179 -0.01966167  0.03931143       0.031
   0.03931125 -0.00000634  0.03930614       0.016
  -0.00000695  0.03931219  0.03930679       0.016
   0.01965215  0.01965293  0.03930647       0.031
   0.03930953  0.01965162  0.03930460       0.031
  -0.01966433  0.03931350  0.03930866       0.031
  -0.01966261  0.01965555  0.03931021       0.031
   0.03930781  0.03930957  0.03930305       0.016
 
 k-points in reciprocal lattice and weights: agbii                                   
   0.00000000  0.00000000  0.00000000       0.016
   0.25000000  0.00000000  0.00000000       0.031
  -0.00000000 -0.25000000  0.00000000       0.031
   0.50000000  0.00000000  0.00000000       0.016
  -0.00000000  0.50000000  0.00000000       0.016
   0.25000000  0.25000000 -0.00000000       0.031
   0.50000000  0.25000000  0.00000000       0.031
  -0.25000000  0.50000000  0.00000000       0.031
  -0.25000000  0.25000000 -0.00000000       0.031
   0.50000000  0.50000000 -0.00000000       0.016
  -0.00000000  0.00000000  0.25000000       0.031
   0.25000000  0.00000000  0.25000000       0.031
   0.00000000 -0.25000000 -0.25000000       0.031
   0.50000000  0.00000000  0.25000000       0.031
   0.00000000  0.50000000 -0.25000000       0.031
  -0.25000000 -0.00000000  0.25000000       0.031
  -0.00000000  0.25000000 -0.25000000       0.031
   0.25000000  0.25000000  0.25000000       0.031
   0.50000000  0.25000000  0.25000000       0.031
  -0.25000000  0.50000000 -0.25000000       0.031
  -0.25000000  0.25000000  0.25000000       0.031
  -0.25000000  0.25000000 -0.25000000       0.031
   0.50000000  0.50000000  0.25000000       0.031
  -0.25000000  0.50000000  0.25000000       0.031
   0.50000000  0.25000000 -0.25000000       0.031
  -0.25000000 -0.25000000  0.25000000       0.031
  -0.00000000  0.00000000  0.50000000       0.016
   0.25000000  0.00000000  0.50000000       0.031
  -0.00000000 -0.25000000  0.50000000       0.031
   0.50000000  0.00000000  0.50000000       0.016
  -0.00000000  0.50000000  0.50000000       0.016
   0.25000000  0.25000000  0.50000000       0.031
   0.50000000  0.25000000  0.50000000       0.031
  -0.25000000  0.50000000  0.50000000       0.031
  -0.25000000  0.25000000  0.50000000       0.031
   0.50000000  0.50000000  0.50000000       0.016
 
 position of ions in fractional coordinates (direct lattice) 
   0.02340433  0.98907394  0.99562713
   0.49911599  0.50249233  0.99801576
   0.97694652  0.50451691  0.51150918
   0.99592931  0.74701223  0.75283318
   0.25007860  0.97560809  0.22494755
   0.47677237  0.74466732  0.24057387
   0.52344421  0.26036890  0.75501173
   0.75147643  0.27491266  0.52435243
   0.25369246  0.24882496  0.99867625
   0.74994915  0.74991752  0.00049533
   0.00047329  0.24851445  0.25176374
   0.50022209  0.00273101  0.49768301
   0.75363401  0.00173162  0.75162489
   0.74675354  0.50123164  0.25127708
   0.25035623  0.50056651  0.75034534
   0.24666930  0.74887999  0.49900236
   0.25748953  0.00860987  0.99416705
   0.25388371  0.99566910  0.50979841
   0.24297314  0.50039743  0.99501802
   0.25692551  0.50336642  0.50366908
   0.74335535  0.99674420  0.99709098
   0.74666420  0.99091326  0.50483034
   0.75731213  0.50536634  0.99987974
   0.74300271  0.50590412  0.49150779
   0.00274589  0.23811143  0.00211833
   0.98114451  0.25966271  0.49242377
   0.99422167  0.75983045  0.99028242
   0.00850124  0.74412833  0.51151171
   0.49183531  0.26087800  0.99465217
   0.52101677  0.24286163  0.50867772
   0.50574271  0.73980536  0.01121199
   0.49774855  0.75239294  0.48684081
   0.02020112  0.00795095  0.24085152
   0.99182397  0.98898557  0.75624295
   0.99760105  0.49827254  0.26202918
   0.00600755  0.51017296  0.74071712
   0.47990062  0.99204753  0.25759394
   0.50279277  0.01304266  0.74800907
   0.50853917  0.50506264  0.23942305
   0.49458738  0.48965312  0.76056713
   0.24660146  0.25961070  0.24555710
   0.24328638  0.25353037  0.75349200
   0.24270246  0.74483351  0.25859681
   0.25802401  0.74481293  0.75010592
   0.75400914  0.25456175  0.24104652
   0.75769464  0.24177751  0.75546655
   0.75707752  0.74678287  0.24690041
   0.74234112  0.74994536  0.75557518
 
 position of ions in cartesian coordinates  (Angst):
   0.29969641 12.57956808 12.66504316
   6.34932563  6.39199845 12.69538050
  12.42572507  6.41779102  6.50783020
  12.66764329  9.50198740  9.57765132
   3.18156622 12.40779767  2.86266531
   6.06445118  9.47107649  3.06140326
   6.65822953  3.31257816  9.60423989
   9.55804675  3.49756142  6.67065730
   3.22784703  3.16571175 12.70319804
   9.53839179  9.53790965  0.00805318
   0.00653461  3.16073438  3.20259508
   6.36236387  0.03578548  6.33082446
   9.58552995  0.02361155  9.56111157
   9.49784300  6.37549441  3.19755622
   3.18533022  6.36698257  9.54486464
   3.13834666  9.52465355  6.34821486
   3.27592851  0.11077640 12.64555898
   3.23032085 12.66321260  6.48583955
   3.09172886  6.36506872 12.65695754
   3.26858124  6.40235115  6.40728957
   9.45594787 12.67791666 12.68448922
   9.49742872 12.60327328  6.42320225
   9.63303514  6.42883772 12.71938594
   9.45043517  6.43515277  6.25315955
   0.03512633  3.02818694  0.02723329
  12.47888384  3.30384365  6.26478481
  12.64622387  9.66523854 12.59788816
   0.10936738  9.46397201  6.50705086
   6.25652199  3.31925706 12.65229874
   6.62704471  3.08968047  6.47098338
   6.43261053  9.40904740  0.14407381
   6.33152802  9.56959653  6.19381604
   0.25721344  0.10137947  3.06353099
  12.61564138 12.57928191  9.62130789
  12.68809940  6.33815184  3.33459825
   0.07773204  6.48887126  9.42213311
   6.10446615 12.61715446  3.27819007
   6.39536905  0.16717710  9.51484916
   6.46825266  6.42393844  3.04651357
   6.29143313  6.22847334  9.67514435
   3.13676245  3.30211851  3.12394281
   3.09521114  3.22529605  9.58458347
   3.08760253  9.47294771  3.29037957
   3.28305472  9.47319447  9.54212160
   9.58989740  3.23846835  3.06714085
   9.63738072  3.07640322  9.61026861
   9.62934493  9.49829901  3.14219426
   9.44254754  9.53901022  9.61224367
 


--------------------------------------------------------------------------------------------------------


 k-point   1 :   0.0000 0.0000 0.0000  plane waves:   18349
 k-point   2 :   0.2500 0.0000 0.0000  plane waves:   18501
 k-point   3 :  -0.0000-0.2500 0.0000  plane waves:   18501
 k-point   4 :   0.5000 0.0000 0.0000  plane waves:   18464
 k-point   5 :  -0.0000 0.5000 0.0000  plane waves:   18464
 k-point   6 :   0.2500 0.2500-0.0000  plane waves:   18473
 k-point   7 :   0.5000 0.2500 0.0000  plane waves:   18480
 k-point   8 :  -0.2500 0.5000 0.0000  plane waves:   18481
 k-point   9 :  -0.2500 0.2500-0.0000  plane waves:   18473
 k-point  10 :   0.5000 0.5000-0.0000  plane waves:   18528
 k-point  11 :  -0.0000 0.0000 0.2500  plane waves:   18501
 k-point  12 :   0.2500 0.0000 0.2500  plane waves:   18473
 k-point  13 :   0.0000-0.2500-0.2500  plane waves:   18473
 k-point  14 :   0.5000 0.0000 0.2500  plane waves:   18484
 k-point  15 :   0.0000 0.5000-0.2500  plane waves:   18486
 k-point  16 :  -0.2500-0.0000 0.2500  plane waves:   18473
 k-point  17 :  -0.0000 0.2500-0.2500  plane waves:   18473
 k-point  18 :   0.2500 0.2500 0.2500  plane waves:   18484
 k-point  19 :   0.5000 0.2500 0.2500  plane waves:   18447
 k-point  20 :  -0.2500 0.5000-0.2500  plane waves:   18444
 k-point  21 :  -0.2500 0.2500 0.2500  plane waves:   18484
 k-point  22 :  -0.2500 0.2500-0.2500  plane waves:   18484
 k-point  23 :   0.5000 0.5000 0.2500  plane waves:   18468
 k-point  24 :  -0.2500 0.5000 0.2500  plane waves:   18454
 k-point  25 :   0.5000 0.2500-0.2500  plane waves:   18454
 k-point  26 :  -0.2500-0.2500 0.2500  plane waves:   18484
 k-point  27 :  -0.0000 0.0000 0.5000  plane waves:   18464
 k-point  28 :   0.2500 0.0000 0.5000  plane waves:   18476
 k-point  29 :  -0.0000-0.2500 0.5000  plane waves:   18478
 k-point  30 :   0.5000 0.0000 0.5000  plane waves:   18528
 k-point  31 :  -0.0000 0.5000 0.5000  plane waves:   18528
 k-point  32 :   0.2500 0.2500 0.5000  plane waves:   18447
 k-point  33 :   0.5000 0.2500 0.5000  plane waves:   18468
 k-point  34 :  -0.2500 0.5000 0.5000  plane waves:   18468
 k-point  35 :  -0.2500 0.2500 0.5000  plane waves:   18454
 k-point  36 :   0.5000 0.5000 0.5000  plane waves:   18504

 maximum and minimum number of plane-waves per node :     18528    18349

 maximum number of plane-waves:     18528
 maximum index in each direction: 
   IXMAX=   16   IYMAX=   16   IZMAX=   16
   IXMIN=  -16   IYMIN=  -16   IZMIN=  -16


 serial   3D FFT for wavefunctions
 parallel 3D FFT for charge:
    minimum data exchange during FFTs selected (reduces bandwidth)


 total amount of memory used by VASP MPI-rank0  2770360. kBytes
=======================================================================

   base      :      30000. kBytes
   nonl-proj :     302376. kBytes
   fftplans  :      34720. kBytes
   grid      :      70000. kBytes
   one-center:        746. kBytes
   wavefun   :    2332518. kBytes
 
     INWAV:  cpu time    4.5617: real time    4.7323
 Broyden mixing: mesh for mixing (old mesh)
   NGX = 33   NGY = 33   NGZ = 33
  (NGX  =100   NGY  =100   NGZ  =100)
  gives a total of  35937 points

 initial charge density was supplied:
 number of electron     352.0000395 magnetization 
 keeping initial charge density in first step


--------------------------------------------------------------------------------------------------------


 Maximum index for augmentation-charges         5617 (set IRDMAX)


--------------------------------------------------------------------------------------------------------


 First call to EWALD:  gamma=   0.139
 Maximum number of real-space cells 3x 3x 3
 Maximum number of reciprocal cells 3x 3x 3

    FEWALD:  cpu time    0.0027: real time    0.0027


--------------------------------------- Iteration      1(   1)  ---------------------------------------


    POTLOK:  cpu time    0.5626: real time    0.5957
    SETDIJ:  cpu time    0.0275: real time    0.0275
     EDDAV:  cpu time   57.8041: real time   57.8046
 BZINTS: Fermi energy:    2.072421;  352.000000 electrons
         Band energy:-0.753309E+03;  BLOECHL correction:    0.000000
       DOS:  cpu time    0.0544: real time    0.0544
    CHARGE:  cpu time    1.2245: real time    1.2245
    MIXING:  cpu time    0.0286: real time    0.0286
    --------------------------------------------
      LOOP:  cpu time   59.7017: real time   59.7353

 eigenvalue-minimisations  : 10936
 total energy-change (2. order) :-0.1199653E+03  (-0.2785285E-06)
 number of electron     352.0000395 magnetization 
 augmentation part      -23.1224110 magnetization 

 Broyden mixing:
  rms(total) = 0.68137E-03    rms(broyden)= 0.68134E-03
  rms(prec ) = 0.79412E-03
  weight for this iteration     100.00

 Free energy of the ion-electron system (eV)
  ---------------------------------------------------
  alpha Z        PSCENC =       226.37077847
  Ewald energy   TEWEN  =    -13891.01353046
  -Hartree energ DENC   =     -6063.93322962
  -exchange      EXHF   =         0.00000000
  -V(xc)+E(xc)   XCENC  =     -1392.31651289
  PAW double counting   =     22644.53027493   -20502.01807161
  entropy T*S    EENTRO =         0.00000000
  eigenvalues    EBANDS =      -753.30877841
  atomic energy  EATOM  =     19611.72375700
  Solvation  Ediel_sol  =         0.00000000
  ---------------------------------------------------
  free energy    TOTEN  =      -119.96531259 eV

  energy without entropy =     -119.96531259  energy(sigma->0) =     -119.96531259


--------------------------------------------------------------------------------------------------------




--------------------------------------- Iteration      1(   2)  ---------------------------------------


    POTLOK:  cpu time    0.5639: real time    0.5640
    SETDIJ:  cpu time    0.0529: real time    0.0529
     EDDAV:  cpu time   47.7491: real time   47.7493
 BZINTS: Fermi energy:    2.072334;  352.000000 electrons
         Band energy:-0.753308E+03;  BLOECHL correction:    0.000000
       DOS:  cpu time    0.0587: real time    0.0587
    --------------------------------------------
      LOOP:  cpu time   48.4245: real time   48.4249

 eigenvalue-minimisations  :  8216
 total energy-change (2. order) : 0.4227331E-07  (-0.1230950E-06)
 number of electron     352.0000395 magnetization 
 augmentation part      -23.1224110 magnetization 

 Free energy of the ion-electron system (eV)
  ---------------------------------------------------
  alpha Z        PSCENC =       226.37077847
  Ewald energy   TEWEN  =    -13891.01353046
  -Hartree energ DENC   =     -6063.93337892
  -exchange      EXHF   =         0.00000000
  -V(xc)+E(xc)   XCENC  =     -1392.31599585
  PAW double counting   =     22644.09064978   -20501.57919621
  entropy T*S    EENTRO =         0.00000000
  eigenvalues    EBANDS =      -753.30839636
  atomic energy  EATOM  =     19611.72375700
  Solvation  Ediel_sol  =         0.00000000
  ---------------------------------------------------
  free energy    TOTEN  =      -119.96531255 eV

  energy without entropy =     -119.96531255  energy(sigma->0) =     -119.96531255


--------------------------------------------------------------------------------------------------------




 average (electrostatic) potential at core
  the test charge radii are     1.1249  1.4024  1.1875
  (the norm of the test charge is              1.0000)
       1 -75.0465       2 -74.9872       3 -75.0481       4 -74.9901       5 -75.1701
       6 -75.0443       7 -75.0449       8 -75.1712       9 -65.5140      10 -65.4918
      11 -65.4588      12 -65.4604      13 -65.5176      14 -65.5146      15 -65.4876
      16 -65.5145      17 -93.2134      18 -93.3086      19 -93.3042      20 -93.3246
      21 -93.3237      22 -93.3098      23 -93.3000      24 -93.2125      25 -93.1701
      26 -93.0802      27 -92.9901      28 -93.0658      29 -93.0604      30 -93.0712
      31 -92.9929      32 -93.1730      33 -93.0751      34 -93.0622      35 -93.1659
      36 -92.9943      37 -93.0691      38 -93.1708      39 -93.0595      40 -92.9900
      41 -93.3110      42 -93.3199      43 -93.2054      44 -93.2889      45 -93.3137
      46 -93.2157      47 -93.3292      48 -93.3132
 
 
 
 E-fermi :   2.0723     XC(G=0):  -7.8097     alpha+bet : -7.7804


 k-point     1 :       0.0000    0.0000    0.0000
  band No.  band energies     occupation 
      1     -10.8330      2.00000
      2     -10.7030      2.00000
      3     -10.6575      2.00000
      4     -10.5215      2.00000
      5     -10.4709      2.00000
      6     -10.2437      2.00000
      7     -10.2104      2.00000
      8     -10.0289      2.00000
      9      -9.8795      2.00000
     10      -9.8689      2.00000
     11      -9.8544      2.00000
     12      -9.8341      2.00000
     13      -9.8254      2.00000
     14      -9.7957      2.00000
     15      -9.7931      2.00000
     16      -9.7245      2.00000
     17      -9.7150      2.00000
     18      -9.6966      2.00000
     19      -9.6951      2.00000
     20      -9.6933      2.00000
     21      -9.6692      2.00000
     22      -9.6439      2.00000
     23      -9.6393      2.00000
     24      -9.6130      2.00000
     25      -9.6002      2.00000
     26      -9.5912      2.00000
     27      -9.5746      2.00000
     28      -9.5473      2.00000
     29      -9.5404      2.00000
     30      -9.5369      2.00000
     31      -9.5295      2.00000
     32      -9.4973      2.00000
     33      -8.2064      2.00000
     34      -8.1081      2.00000
     35      -8.0955      2.00000
     36      -7.8662      2.00000
     37      -7.8411      2.00000
     38      -7.6314      2.00000
     39      -7.6164      2.00000
     40      -7.6145      2.00000
     41      -1.8093      2.00000
     42      -1.7494      2.00000
     43      -1.7035      2.00000
     44      -1.6924      2.00000
     45      -1.6425      2.00000
     46      -1.5756      2.00000
     47      -1.5157      2.00000
     48      -1.4611      2.00000
     49      -1.4569      2.00000
     50      -1.4231      2.00000
     51      -1.4197      2.00000
     52      -1.3790      2.00000
     53      -1.3445      2.00000
     54      -1.3098      2.00000
     55      -1.3015      2.00000
     56      -1.2643      2.00000
     57      -1.2209      2.00000
     58      -1.2133      2.00000
     59      -1.1411      2.00000
     60      -1.0942      2.00000
     61      -1.0882      2.00000
     62      -1.0490      2.00000
     63      -1.0095      2.00000
     64      -1.0051      2.00000
     65      -0.9987      2.00000
     66      -0.9871      2.00000
     67      -0.9703      2.00000
     68      -0.9695      2.00000
     69      -0.9479      2.00000
     70      -0.9096      2.00000
     71      -0.9065      2.00000
     72      -0.9022      2.00000
     73      -0.8678      2.00000
     74      -0.8389      2.00000
     75      -0.8340      2.00000
     76      -0.8034      2.00000
     77      -0.7978      2.00000
     78      -0.7905      2.00000
     79      -0.7698      2.00000
     80      -0.7226      2.00000
     81      -0.6906      2.00000
     82      -0.6810      2.00000
     83      -0.6437      2.00000
     84      -0.6279      2.00000
     85      -0.6157      2.00000
     86      -0.5983      2.00000
     87      -0.5675      2.00000
     88      -0.5396      2.00000
     89      -0.5267      2.00000
     90      -0.4931      2.00000
     91      -0.4665      2.00000
     92      -0.4559      2.00000
     93      -0.4431      2.00000
     94      -0.3995      2.00000
     95      -0.3867      2.00000
     96      -0.3582      2.00000
     97      -0.3410      2.00000
     98      -0.3341      2.00000
     99      -0.3096      2.00000
    100      -0.3045      2.00000
    101      -0.2736      2.00000
    102      -0.2528      2.00000
    103      -0.2462      2.00000
    104      -0.2151      2.00000
    105      -0.1939      2.00000
    106      -0.1871      2.00000
    107      -0.1604      2.00000
    108      -0.1403      2.00000
    109      -0.1131      2.00000
    110      -0.1023      2.00000
    111      -0.0481      2.00000
    112      -0.0302      2.00000
    113       0.0901      2.00000
    114       0.1395      2.00000
    115       0.1815      2.00000
    116       0.1903      2.00000
    117       0.1932      2.00000
    118       0.2237      2.00000
    119       0.2470      2.00000
    120       0.2577      2.00000
    121       0.2657      2.00000
    122       0.3021      2.00000
    123       0.3670      2.00000
    124       0.4066      2.00000
    125       0.4130      2.00000
    126       0.4274      2.00000
    127       0.4938      2.00000
    128       0.5266      2.00000
    129       0.5355      2.00000
    130       0.5369      2.00000
    131       0.5508      2.00000
    132       0.5612      2.00000
    133       0.6000      2.00000
    134       0.6525      2.00000
    135       0.7063      2.00000
    136       0.7181      2.00000
    137       0.7240      2.00000
    138       0.7272      2.00000
    139       0.7394      2.00000
    140       0.7908      2.00000
    141       0.7954      2.00000
    142       0.8078      2.00000
    143       0.8324      2.00000
    144       0.8508      2.00000
    145       0.8584      2.00000
    146       0.9004      2.00000
    147       0.9500      2.00000
    148       0.9781      2.00000
    149       1.0032      2.00000
    150       1.0389      2.00000
    151       1.0762      2.00000
    152       1.1034      2.00000
    153       1.1156      2.00000
    154       1.1621      2.00000
    155       1.1786      2.00000
    156       1.1833      2.00000
    157       1.2081      2.00000
    158       1.2171      2.00000
    159       1.2550      2.00000
    160       1.3219      2.00000
    161       1.3691      2.00000
    162       1.4125      2.00000
    163       1.4779      2.00000
    164       1.5068      2.00000
    165       1.5532      2.00000
    166       1.5675      2.00000
    167       1.5886      2.00000
    168       1.6154      2.00000
    169       1.7733      2.00000
    170       1.7780      2.00000
    171       1.8909      2.00000
    172       1.9069      2.00000
    173       2.0170      2.00000
    174       2.0282      2.00000
    175       2.0442      2.00000
    176       2.0723      2.00000
    177       3.8506      0.00000
    178       4.0129      0.00000
    179       4.0243      0.00000
    180       4.1393      0.00000
    181       4.1744      0.00000
    182       4.3588      0.00000
    183       4.3605      0.00000
    184       4.4059      0.00000
    185       4.4379      0.00000
    186       4.4530      0.00000
    187       4.5291      0.00000
    188       4.5453      0.00000
    189       4.5717      0.00000
    190       4.5780      0.00000
    191       4.6163      0.00000
    192       4.6234      0.00000
    193       4.6547      0.00000
    194       4.7152      0.00000
    195       4.7453      0.00000
    196       4.7497      0.00000
    197       4.8142      0.00000
    198       4.8440      0.00000
    199       4.8496      0.00000
    200       4.9666      0.00000
    201       5.0854      0.00000
    202       5.2826      0.00000
    203       5.5913      0.00000
    204       5.7314      0.00000
    205       5.9294      0.00000
    206       5.9508      0.00000
    207       5.9631      0.00000
    208       5.9999      0.00000
    209       7.1694      0.00000
    210       7.2735      0.00000
    211       7.2858      0.00000

 k-point     2 :       0.2500    0.0000    0.0000
  band No.  band energies     occupation 
      1     -10.8187      2.00000
      2     -10.7334      2.00000
      3     -10.6330      2.00000
      4     -10.5520      2.00000
      5     -10.4346      2.00000
      6     -10.3059      2.00000
      7     -10.1482      2.00000
      8     -10.0452      2.00000
      9      -9.8798      2.00000
     10      -9.8705      2.00000
     11      -9.8469      2.00000
     12      -9.8365      2.00000
     13      -9.8300      2.00000
     14      -9.8125      2.00000
     15      -9.7724      2.00000
     16      -9.7206      2.00000
     17      -9.7194      2.00000
     18      -9.7039      2.00000
     19      -9.6873      2.00000
     20      -9.6825      2.00000
     21      -9.6698      2.00000
     22      -9.6609      2.00000
     23      -9.6240      2.00000
     24      -9.6130      2.00000
     25      -9.6074      2.00000
     26      -9.5930      2.00000
     27      -9.5664      2.00000
     28      -9.5430      2.00000
     29      -9.5410      2.00000
     30      -9.5386      2.00000
     31      -9.5314      2.00000
     32      -9.5041      2.00000
     33      -8.2003      2.00000
     34      -8.1478      2.00000
     35      -8.0483      2.00000
     36      -7.9243      2.00000
     37      -7.7853      2.00000
     38      -7.6609      2.00000
     39      -7.6194      2.00000
     40      -7.5944      2.00000
     41      -1.7937      2.00000
     42      -1.7359      2.00000
     43      -1.7181      2.00000
     44      -1.6708      2.00000
     45      -1.6650      2.00000
     46      -1.5808      2.00000
     47      -1.5275      2.00000
     48      -1.4841      2.00000
     49      -1.4459      2.00000
     50      -1.4369      2.00000
     51      -1.4234      2.00000
     52      -1.3853      2.00000
     53      -1.3243      2.00000
     54      -1.2993      2.00000
     55      -1.2692      2.00000
     56      -1.2626      2.00000
     57      -1.2597      2.00000
     58      -1.1890      2.00000
     59      -1.1371      2.00000
     60      -1.1273      2.00000
     61      -1.0846      2.00000
     62      -1.0783      2.00000
     63      -1.0692      2.00000
     64      -1.0167      2.00000
     65      -1.0120      2.00000
     66      -0.9894      2.00000
     67      -0.9766      2.00000
     68      -0.9381      2.00000
     69      -0.9309      2.00000
     70      -0.9143      2.00000
     71      -0.8967      2.00000
     72      -0.8922      2.00000
     73      -0.8741      2.00000
     74      -0.8451      2.00000
     75      -0.8140      2.00000
     76      -0.8007      2.00000
     77      -0.7838      2.00000
     78      -0.7700      2.00000
     79      -0.7454      2.00000
     80      -0.7339      2.00000
     81      -0.6995      2.00000
     82      -0.6604      2.00000
     83      -0.6357      2.00000
     84      -0.6163      2.00000
     85      -0.6139      2.00000
     86      -0.5962      2.00000
     87      -0.5718      2.00000
     88      -0.5394      2.00000
     89      -0.5123      2.00000
     90      -0.4705      2.00000
     91      -0.4682      2.00000
     92      -0.4524      2.00000
     93      -0.4346      2.00000
     94      -0.3958      2.00000
     95      -0.3733      2.00000
     96      -0.3613      2.00000
     97      -0.3574      2.00000
     98      -0.3301      2.00000
     99      -0.3073      2.00000
    100      -0.3058      2.00000
    101      -0.2746      2.00000
    102      -0.2641      2.00000
    103      -0.2585      2.00000
    104      -0.2111      2.00000
    105      -0.2092      2.00000
    106      -0.1928      2.00000
    107      -0.1708      2.00000
    108      -0.1661      2.00000
    109      -0.1406      2.00000
    110      -0.1301      2.00000
    111      -0.0973      2.00000
    112      -0.0631      2.00000
    113       0.0843      2.00000
    114       0.1574      2.00000
    115       0.1839      2.00000
    116       0.1946      2.00000
    117       0.2431      2.00000
    118       0.2577      2.00000
    119       0.2788      2.00000
    120       0.2898      2.00000
    121       0.3152      2.00000
    122       0.3599      2.00000
    123       0.3741      2.00000
    124       0.4138      2.00000
    125       0.4216      2.00000
    126       0.4290      2.00000
    127       0.4515      2.00000
    128       0.4790      2.00000
    129       0.5047      2.00000
    130       0.5282      2.00000
    131       0.5613      2.00000
    132       0.5747      2.00000
    133       0.6274      2.00000
    134       0.6625      2.00000
    135       0.6696      2.00000
    136       0.6853      2.00000
    137       0.7346      2.00000
    138       0.7432      2.00000
    139       0.7449      2.00000
    140       0.7695      2.00000
    141       0.7910      2.00000
    142       0.8016      2.00000
    143       0.8189      2.00000
    144       0.8571      2.00000
    145       0.8590      2.00000
    146       0.9180      2.00000
    147       0.9625      2.00000
    148       0.9669      2.00000
    149       1.0062      2.00000
    150       1.0325      2.00000
    151       1.0487      2.00000
    152       1.1077      2.00000
    153       1.1303      2.00000
    154       1.1620      2.00000
    155       1.1819      2.00000
    156       1.1917      2.00000
    157       1.2095      2.00000
    158       1.2384      2.00000
    159       1.2607      2.00000
    160       1.2863      2.00000
    161       1.4289      2.00000
    162       1.4646      2.00000
    163       1.4676      2.00000
    164       1.4837      2.00000
    165       1.5589      2.00000
    166       1.5869      2.00000
    167       1.6193      2.00000
    168       1.6268      2.00000
    169       1.7506      2.00000
    170       1.7611      2.00000
    171       1.8226      2.00000
    172       1.8325      2.00000
    173       2.0020      2.00000
    174       2.0178      2.00000
    175       2.0369      2.00000
    176       2.0620      2.00000
    177       3.8802      0.00000
    178       3.9809      0.00000
    179       4.0826      0.00000
    180       4.1413      0.00000
    181       4.2116      0.00000
    182       4.3295      0.00000
    183       4.3831      0.00000
    184       4.4279      0.00000
    185       4.4359      0.00000
    186       4.4663      0.00000
    187       4.5212      0.00000
    188       4.5270      0.00000
    189       4.5338      0.00000
    190       4.5799      0.00000
    191       4.5867      0.00000
    192       4.6533      0.00000
    193       4.6914      0.00000
    194       4.7152      0.00000
    195       4.7491      0.00000
    196       4.7645      0.00000
    197       4.7679      0.00000
    198       4.8047      0.00000
    199       4.8425      0.00000
    200       4.9350      0.00000
    201       5.2000      0.00000
    202       5.3640      0.00000
    203       5.6300      0.00000
    204       5.7180      0.00000
    205       5.8410      0.00000
    206       5.8964      0.00000
    207       5.9310      0.00000
    208       5.9495      0.00000
    209       7.2033      0.00000
    210       7.3832      0.00000
    211       7.3953      0.00000

 k-point     3 :      -0.0000   -0.2500    0.0000
  band No.  band energies     occupation 
      1     -10.8180      2.00000
      2     -10.7089      2.00000
      3     -10.6780      2.00000
      4     -10.5188      2.00000
      5     -10.4673      2.00000
      6     -10.2431      2.00000
      7     -10.1986      2.00000
      8     -10.0394      2.00000
      9      -9.8847      2.00000
     10      -9.8783      2.00000
     11      -9.8579      2.00000
     12      -9.8356      2.00000
     13      -9.8283      2.00000
     14      -9.7852      2.00000
     15      -9.7736      2.00000
     16      -9.7287      2.00000
     17      -9.7156      2.00000
     18      -9.7023      2.00000
     19      -9.6849      2.00000
     20      -9.6809      2.00000
     21      -9.6758      2.00000
     22      -9.6465      2.00000
     23      -9.6321      2.00000
     24      -9.6193      2.00000
     25      -9.5953      2.00000
     26      -9.5942      2.00000
     27      -9.5695      2.00000
     28      -9.5528      2.00000
     29      -9.5438      2.00000
     30      -9.5380      2.00000
     31      -9.5272      2.00000
     32      -9.5031      2.00000
     33      -8.2116      2.00000
     34      -8.1046      2.00000
     35      -8.0955      2.00000
     36      -7.8647      2.00000
     37      -7.8418      2.00000
     38      -7.6642      2.00000
     39      -7.6128      2.00000
     40      -7.5856      2.00000
     41      -1.7873      2.00000
     42      -1.7336      2.00000
     43      -1.7036      2.00000
     44      -1.6781      2.00000
     45      -1.6366      2.00000
     46      -1.5968      2.00000
     47      -1.5465      2.00000
     48      -1.5310      2.00000
     49      -1.4782      2.00000
     50      -1.4356      2.00000
     51      -1.3821      2.00000
     52      -1.3675      2.00000
     53      -1.3356      2.00000
     54      -1.3044      2.00000
     55      -1.2850      2.00000
     56      -1.2573      2.00000
     57      -1.2118      2.00000
     58      -1.1873      2.00000
     59      -1.1628      2.00000
     60      -1.1142      2.00000
     61      -1.1013      2.00000
     62      -1.0681      2.00000
     63      -1.0326      2.00000
     64      -1.0204      2.00000
     65      -1.0038      2.00000
     66      -0.9865      2.00000
     67      -0.9659      2.00000
     68      -0.9508      2.00000
     69      -0.9290      2.00000
     70      -0.9207      2.00000
     71      -0.8980      2.00000
     72      -0.8910      2.00000
     73      -0.8685      2.00000
     74      -0.8579      2.00000
     75      -0.8232      2.00000
     76      -0.8022      2.00000
     77      -0.7991      2.00000
     78      -0.7941      2.00000
     79      -0.7508      2.00000
     80      -0.7398      2.00000
     81      -0.6939      2.00000
     82      -0.6641      2.00000
     83      -0.6422      2.00000
     84      -0.6318      2.00000
     85      -0.6175      2.00000
     86      -0.5758      2.00000
     87      -0.5673      2.00000
     88      -0.5405      2.00000
     89      -0.4941      2.00000
     90      -0.4826      2.00000
     91      -0.4634      2.00000
     92      -0.4533      2.00000
     93      -0.4261      2.00000
     94      -0.4003      2.00000
     95      -0.3860      2.00000
     96      -0.3710      2.00000
     97      -0.3601      2.00000
     98      -0.3487      2.00000
     99      -0.3241      2.00000
    100      -0.2996      2.00000
    101      -0.2876      2.00000
    102      -0.2695      2.00000
    103      -0.2116      2.00000
    104      -0.2070      2.00000
    105      -0.1954      2.00000
    106      -0.1633      2.00000
    107      -0.1459      2.00000
    108      -0.1422      2.00000
    109      -0.1318      2.00000
    110      -0.1183      2.00000
    111      -0.0843      2.00000
    112      -0.0328      2.00000
    113       0.0965      2.00000
    114       0.1219      2.00000
    115       0.1440      2.00000
    116       0.1612      2.00000
    117       0.1921      2.00000
    118       0.2413      2.00000
    119       0.2598      2.00000
    120       0.2770      2.00000
    121       0.2974      2.00000
    122       0.3494      2.00000
    123       0.3632      2.00000
    124       0.3683      2.00000
    125       0.4276      2.00000
    126       0.4614      2.00000
    127       0.4832      2.00000
    128       0.5201      2.00000
    129       0.5383      2.00000
    130       0.5667      2.00000
    131       0.5798      2.00000
    132       0.6024      2.00000
    133       0.6130      2.00000
    134       0.6380      2.00000
    135       0.6639      2.00000
    136       0.6976      2.00000
    137       0.7111      2.00000
    138       0.7319      2.00000
    139       0.7681      2.00000
    140       0.7744      2.00000
    141       0.7868      2.00000
    142       0.8247      2.00000
    143       0.8307      2.00000
    144       0.8446      2.00000
    145       0.8760      2.00000
    146       0.9113      2.00000
    147       0.9841      2.00000
    148       0.9996      2.00000
    149       1.0029      2.00000
    150       1.0232      2.00000
    151       1.0331      2.00000
    152       1.0949      2.00000
    153       1.1386      2.00000
    154       1.1606      2.00000
    155       1.1675      2.00000
    156       1.1707      2.00000
    157       1.1993      2.00000
    158       1.2248      2.00000
    159       1.2576      2.00000
    160       1.3118      2.00000
    161       1.3682      2.00000
    162       1.4270      2.00000
    163       1.4874      2.00000
    164       1.4985      2.00000
    165       1.5432      2.00000
    166       1.5695      2.00000
    167       1.6154      2.00000
[...]
    143       0.8416      2.00000
    144       0.8816      2.00000
    145       0.9115      2.00000
    146       0.9515      2.00000
    147       0.9772      2.00000
    148       1.0219      2.00000
    149       1.0332      2.00000
    150       1.0522      2.00000
    151       1.0704      2.00000
    152       1.0816      2.00000
    153       1.1135      2.00000
    154       1.1257      2.00000
    155       1.1613      2.00000
    156       1.1847      2.00000
    157       1.2132      2.00000
    158       1.2374      2.00000
    159       1.2577      2.00000
    160       1.2874      2.00000
    161       1.4696      2.00000
    162       1.4809      2.00000
    163       1.5171      2.00000
    164       1.5378      2.00000
    165       1.5998      2.00000
    166       1.6207      2.00000
    167       1.6357      2.00000
    168       1.6696      2.00000
    169       1.7583      2.00000
    170       1.7839      2.00000
    171       1.8496      2.00000
    172       1.8724      2.00000
    173       1.8808      2.00000
    174       1.9042      2.00000
    175       1.9993      2.00000
    176       2.0185      2.00000
    177       3.8248      0.00000
    178       3.8796      0.00000
    179       4.0359      0.00000
    180       4.0896      0.00000
    181       4.1348      0.00000
    182       4.1919      0.00000
    183       4.2618      0.00000
    184       4.3259      0.00000
    185       4.3535      0.00000
    186       4.4130      0.00000
    187       4.4442      0.00000
    188       4.4829      0.00000
    189       4.5957      0.00000
    190       4.6238      0.00000
    191       4.6667      0.00000
    192       4.7142      0.00000
    193       4.7482      0.00000
    194       4.7688      0.00000
    195       4.7863      0.00000
    196       4.8116      0.00000
    197       4.8506      0.00000
    198       4.8829      0.00000
    199       4.9620      0.00000
    200       4.9776      0.00000
    201       5.5077      0.00000
    202       5.5354      0.00000
    203       5.5879      0.00000
    204       5.6431      0.00000
    205       5.6898      0.00000
    206       5.7451      0.00000
    207       5.7730      0.00000
    208       5.8775      0.00000
    209       7.4115      0.00000
    210       7.4704      0.00000
    211       7.5129      0.00000

 k-point    36 :       0.5000    0.5000    0.5000
  band No.  band energies     occupation 
      1     -10.7587      2.00000
      2     -10.7555      2.00000
      3     -10.6292      2.00000
      4     -10.6281      2.00000
      5     -10.3728      2.00000
      6     -10.3720      2.00000
      7     -10.1045      2.00000
      8     -10.1016      2.00000
      9      -9.8959      2.00000
     10      -9.8916      2.00000
     11      -9.8051      2.00000
     12      -9.8004      2.00000
     13      -9.7778      2.00000
     14      -9.7763      2.00000
     15      -9.7362      2.00000
     16      -9.7353      2.00000
     17      -9.7141      2.00000
     18      -9.7116      2.00000
     19      -9.6892      2.00000
     20      -9.6870      2.00000
     21      -9.6840      2.00000
     22      -9.6834      2.00000
     23      -9.6214      2.00000
     24      -9.6206      2.00000
     25      -9.5997      2.00000
     26      -9.5995      2.00000
     27      -9.5724      2.00000
     28      -9.5704      2.00000
     29      -9.5371      2.00000
     30      -9.5365      2.00000
     31      -9.5281      2.00000
     32      -9.5251      2.00000
     33      -8.1836      2.00000
     34      -8.1820      2.00000
     35      -7.9895      2.00000
     36      -7.9880      2.00000
     37      -7.7498      2.00000
     38      -7.7482      2.00000
     39      -7.5732      2.00000
     40      -7.5704      2.00000
     41      -1.7704      2.00000
     42      -1.7673      2.00000
     43      -1.6653      2.00000
     44      -1.6637      2.00000
     45      -1.6221      2.00000
     46      -1.6174      2.00000
     47      -1.5291      2.00000
     48      -1.5258      2.00000
     49      -1.4745      2.00000
     50      -1.4738      2.00000
     51      -1.4469      2.00000
     52      -1.4427      2.00000
     53      -1.3656      2.00000
     54      -1.3641      2.00000
     55      -1.2733      2.00000
     56      -1.2703      2.00000
     57      -1.2561      2.00000
     58      -1.2508      2.00000
     59      -1.1285      2.00000
     60      -1.1255      2.00000
     61      -1.0325      2.00000
     62      -1.0290      2.00000
     63      -0.9980      2.00000
     64      -0.9919      2.00000
     65      -0.9810      2.00000
     66      -0.9794      2.00000
     67      -0.9523      2.00000
     68      -0.9505      2.00000
     69      -0.9025      2.00000
     70      -0.8968      2.00000
     71      -0.8712      2.00000
     72      -0.8673      2.00000
     73      -0.8534      2.00000
     74      -0.8519      2.00000
     75      -0.8278      2.00000
     76      -0.8263      2.00000
     77      -0.8191      2.00000
     78      -0.8116      2.00000
     79      -0.7293      2.00000
     80      -0.7278      2.00000
     81      -0.6794      2.00000
     82      -0.6767      2.00000
     83      -0.6122      2.00000
     84      -0.6079      2.00000
     85      -0.5780      2.00000
     86      -0.5751      2.00000
     87      -0.5360      2.00000
     88      -0.5348      2.00000
     89      -0.5022      2.00000
     90      -0.5017      2.00000
     91      -0.4629      2.00000
     92      -0.4626      2.00000
     93      -0.3895      2.00000
     94      -0.3859      2.00000
     95      -0.3690      2.00000
     96      -0.3678      2.00000
     97      -0.3437      2.00000
     98      -0.3415      2.00000
     99      -0.2982      2.00000
    100      -0.2953      2.00000
    101      -0.2934      2.00000
    102      -0.2910      2.00000
    103      -0.2418      2.00000
    104      -0.2390      2.00000
    105      -0.1962      2.00000
    106      -0.1955      2.00000
    107      -0.1703      2.00000
    108      -0.1679      2.00000
    109      -0.1301      2.00000
    110      -0.1287      2.00000
    111      -0.0691      2.00000
    112      -0.0656      2.00000
    113       0.0467      2.00000
    114       0.0486      2.00000
    115       0.1570      2.00000
    116       0.1594      2.00000
    117       0.2440      2.00000
    118       0.2457      2.00000
    119       0.2993      2.00000
    120       0.3019      2.00000
    121       0.3792      2.00000
    122       0.3796      2.00000
    123       0.3824      2.00000
    124       0.3857      2.00000
    125       0.4310      2.00000
    126       0.4341      2.00000
    127       0.4651      2.00000
    128       0.4689      2.00000
    129       0.5240      2.00000
    130       0.5281      2.00000
    131       0.5641      2.00000
    132       0.5667      2.00000
    133       0.5869      2.00000
    134       0.5908      2.00000
    135       0.6182      2.00000
    136       0.6191      2.00000
    137       0.6828      2.00000
    138       0.6861      2.00000
    139       0.7125      2.00000
    140       0.7149      2.00000
    141       0.7506      2.00000
    142       0.7524      2.00000
    143       0.8900      2.00000
    144       0.8925      2.00000
    145       0.9217      2.00000
    146       0.9226      2.00000
    147       1.0467      2.00000
    148       1.0495      2.00000
    149       1.0674      2.00000
    150       1.0702      2.00000
    151       1.0874      2.00000
    152       1.0894      2.00000
    153       1.1041      2.00000
    154       1.1063      2.00000
    155       1.1883      2.00000
    156       1.1888      2.00000
    157       1.2186      2.00000
    158       1.2201      2.00000
    159       1.2816      2.00000
    160       1.2825      2.00000
    161       1.4963      2.00000
    162       1.4974      2.00000
    163       1.5922      2.00000
    164       1.5982      2.00000
    165       1.5994      2.00000
    166       1.6004      2.00000
    167       1.7096      2.00000
    168       1.7134      2.00000
    169       1.7869      2.00000
    170       1.7887      2.00000
    171       1.8503      2.00000
    172       1.8574      2.00000
    173       1.8776      2.00000
    174       1.8813      2.00000
    175       2.0369      2.00000
    176       2.0396      2.00000
    177       3.7209      0.00000
    178       3.7249      0.00000
    179       3.9290      0.00000
    180       3.9332      0.00000
    181       4.0598      0.00000
    182       4.0605      0.00000
    183       4.2449      0.00000
    184       4.2461      0.00000
    185       4.3320      0.00000
    186       4.3334      0.00000
    187       4.4385      0.00000
    188       4.4409      0.00000
    189       4.6304      0.00000
    190       4.6351      0.00000
    191       4.7178      0.00000
    192       4.7191      0.00000
    193       4.8332      0.00000
    194       4.8356      0.00000
    195       4.8650      0.00000
    196       4.8665      0.00000
    197       4.9692      0.00000
    198       4.9700      0.00000
    199       5.0432      0.00000
    200       5.0494      0.00000
    201       5.5503      0.00000
    202       5.5550      0.00000
    203       5.5812      0.00000
    204       5.5827      0.00000
    205       5.6155      0.00000
    206       5.6214      0.00000
    207       5.8140      0.00000
    208       5.8158      0.00000
    209       7.2523      0.00000
    210       7.2555      0.00000
    211       7.5267      0.00000


--------------------------------------------------------------------------------------------------------


 soft charge-density along one line, spin component           1
         0         1         2         3         4         5         6         7         8         9
 total charge-density along one line
 
 pseudopotential strength for first ion, spin component:           1
 -6.451   0.000  -0.002  -0.000   0.000  -6.586   0.000  -0.002
  0.000  -6.443   0.000   0.001   0.000   0.000  -6.578   0.000
 -0.002   0.000  -6.437   0.001   0.004  -0.002   0.000  -6.572
 -0.000   0.001   0.001  -6.448   0.000  -0.000   0.001   0.001
  0.000   0.000   0.004   0.000  -6.444   0.000   0.000   0.004
 -6.586   0.000  -0.002  -0.000   0.000  -6.690   0.000  -0.001
  0.000  -6.578   0.000   0.001   0.000   0.000  -6.683   0.000
 -0.002   0.000  -6.572   0.001   0.004  -0.001   0.000  -6.677
 -0.000   0.001   0.001  -6.583   0.000  -0.000   0.001   0.001
  0.000   0.000   0.004   0.000  -6.579   0.000   0.000   0.004
  0.001   0.000  -0.001   0.000  -0.000   0.001   0.000  -0.001
  0.001   0.001  -0.002   0.000  -0.001   0.001   0.001  -0.002
 -0.006   0.001  -0.004   0.000  -0.007  -0.006   0.001  -0.004
  0.000   0.006   0.002  -0.006   0.000   0.000   0.006   0.002
  0.006   0.000   0.004   0.002  -0.007   0.006   0.000   0.004
 -0.008   0.002  -0.005   0.000  -0.008  -0.007   0.002  -0.004
  0.000   0.008   0.002  -0.008   0.000   0.000   0.007   0.002
  0.008   0.000   0.005   0.002  -0.009   0.008   0.000   0.005
 total augmentation occupancy for first ion, spin component:           1
  2.295   0.006  -0.133  -0.002  -0.008  -0.319  -0.009   0.132  -0.001   0.008  -0.143   0.023   0.067   0.001  -0.027  -0.006
  0.006   2.277   0.046   0.007  -0.035  -0.009  -0.297  -0.043  -0.012   0.037  -0.065   0.014   0.000  -0.021   0.004   0.001
 -0.133   0.046   4.136   0.156   0.239   0.133  -0.043  -1.965  -0.141  -0.228   0.027  -0.013  -0.070   0.018   0.099   0.002
 -0.002   0.007   0.156   2.296  -0.012  -0.001  -0.012  -0.141  -0.296   0.005  -0.064   0.013  -0.000   0.042   0.010  -0.000
 -0.008  -0.035   0.239  -0.012   3.995   0.008   0.037  -0.228   0.005  -1.851   0.215  -0.031  -0.108   0.011  -0.197   0.003
 -0.319  -0.009   0.133  -0.001   0.008   0.324   0.012  -0.131   0.004  -0.009   0.130  -0.027  -0.051  -0.001   0.018   0.003
 -0.009  -0.297  -0.043  -0.012   0.037   0.012   0.300   0.040   0.017  -0.039   0.056  -0.014  -0.001   0.013  -0.003   0.000
  0.132  -0.043  -1.965  -0.141  -0.228  -0.131   0.040   1.796   0.128   0.219  -0.020   0.006   0.064  -0.018  -0.090  -0.004
 -0.001  -0.012  -0.141  -0.296   0.005   0.004   0.017   0.128   0.282   0.001   0.057  -0.014   0.000  -0.030  -0.011   0.000
  0.008   0.037  -0.228   0.005  -1.851  -0.009  -0.039   0.219   0.001   1.707  -0.188   0.034   0.102  -0.009   0.178  -0.007
 -0.143  -0.065   0.027  -0.064   0.215   0.130   0.056  -0.020   0.057  -0.188   1.435  -0.306  -0.044  -0.012   0.048   0.004
  0.023   0.014  -0.013   0.013  -0.031  -0.027  -0.014   0.006  -0.014   0.034  -0.306   0.070   0.008   0.003  -0.011  -0.001
  0.067   0.000  -0.070  -0.000  -0.108  -0.051  -0.001   0.064   0.000   0.102  -0.044   0.008   0.101   0.003   0.009  -0.007
  0.001  -0.021   0.018   0.042   0.011  -0.001   0.013  -0.018  -0.030  -0.009  -0.012   0.003   0.003   0.088   0.004  -0.000
 -0.027   0.004   0.099   0.010  -0.197   0.018  -0.003  -0.090  -0.011   0.178   0.048  -0.011   0.009   0.004   0.078  -0.001
 -0.006   0.001   0.002  -0.000   0.003   0.003   0.000  -0.004   0.000  -0.007   0.004  -0.001  -0.007  -0.000  -0.001   0.001
 -0.000   0.004  -0.001  -0.005  -0.000   0.000  -0.001   0.001   0.002   0.000   0.001  -0.000  -0.000  -0.006  -0.000   0.000
  0.005  -0.000  -0.004   0.000   0.008  -0.001   0.000   0.006   0.001  -0.011  -0.005   0.001  -0.001  -0.000  -0.005   0.000


------------------------ aborting loop because EDIFF is reached ----------------------------------------


 


 total charge     
 
# of ion       s       p       d       tot
------------------------------------------
    1        0.241   0.151   9.320   9.712
    2        0.238   0.147   9.323   9.708
    3        0.241   0.151   9.320   9.712
    4        0.238   0.147   9.323   9.708
    5        0.253   0.158   9.312   9.723
    6        0.241   0.151   9.320   9.712
    7        0.241   0.151   9.320   9.712
    8        0.252   0.158   9.313   9.723
    9        1.834   1.401   0.139   3.374
   10        1.835   1.398   0.139   3.372
   11        1.833   1.401   0.136   3.370
   12        1.833   1.401   0.135   3.369
   13        1.834   1.401   0.138   3.373
   14        1.834   1.401   0.139   3.374
   15        1.835   1.398   0.139   3.372
   16        1.834   1.401   0.138   3.373
   17        1.514   2.742   0.017   4.273
   18        1.518   2.742   0.011   4.271
   19        1.518   2.742   0.013   4.273
   20        1.518   2.742   0.012   4.272
   21        1.518   2.742   0.012   4.272
   22        1.518   2.742   0.011   4.271
   23        1.518   2.743   0.012   4.273
   24        1.514   2.742   0.017   4.274
   25        1.517   2.745   0.012   4.275
   26        1.514   2.743   0.015   4.272
   27        1.513   2.747   0.016   4.276
   28        1.516   2.743   0.015   4.274
   29        1.516   2.744   0.015   4.274
   30        1.515   2.743   0.015   4.272
   31        1.513   2.747   0.016   4.276
   32        1.517   2.745   0.013   4.275
   33        1.514   2.743   0.015   4.272
   34        1.516   2.743   0.015   4.274
   35        1.517   2.746   0.012   4.275
   36        1.513   2.748   0.016   4.276
   37        1.514   2.743   0.015   4.272
   38        1.517   2.745   0.013   4.275
   39        1.516   2.744   0.015   4.274
   40        1.513   2.748   0.016   4.276
   41        1.518   2.742   0.011   4.272
   42        1.518   2.743   0.012   4.273
   43        1.514   2.742   0.017   4.274
   44        1.518   2.743   0.012   4.273
   45        1.518   2.742   0.011   4.272
   46        1.514   2.742   0.017   4.274
   47        1.518   2.742   0.012   4.272
   48        1.518   2.742   0.013   4.273
--------------------------------------------------
tot         65.134 100.211  76.094 241.438
 


--------------------------------------------------------------------------------------------------------



  FREE ENERGIE OF THE ION-ELECTRON SYSTEM (eV)
  ---------------------------------------------------
  free  energy   TOTEN  =      -119.96531255 eV

  energy  without entropy=     -119.96531255  energy(sigma->0) =     -119.96531255
 


--------------------------------------------------------------------------------------------------------




--------------------------------------------------------------------------------------------------------


 writing wavefunctions
     LOOP+:  cpu time  112.9475: real time  113.0375
    4ORBIT:  cpu time    0.0000: real time    0.0000
 


 total charge     
 
# of ion       s       p       d       tot
------------------------------------------
    1        0.241   0.151   9.320   9.712
    2        0.238   0.147   9.323   9.708
    3        0.241   0.151   9.320   9.712
    4        0.238   0.147   9.323   9.708
    5        0.253   0.158   9.312   9.723
    6        0.241   0.151   9.320   9.712
    7        0.241   0.151   9.320   9.712
    8        0.252   0.158   9.313   9.723
    9        1.834   1.401   0.139   3.374
   10        1.835   1.398   0.139   3.372
   11        1.833   1.401   0.136   3.370
   12        1.833   1.401   0.135   3.369
   13        1.834   1.401   0.138   3.373
   14        1.834   1.401   0.139   3.374
   15        1.835   1.398   0.139   3.372
   16        1.834   1.401   0.138   3.373
   17        1.514   2.742   0.017   4.273
   18        1.518   2.742   0.011   4.271
   19        1.518   2.742   0.013   4.273
   20        1.518   2.742   0.012   4.272
   21        1.518   2.742   0.012   4.272
   22        1.518   2.742   0.011   4.271
   23        1.518   2.743   0.012   4.273
   24        1.514   2.742   0.017   4.274
   25        1.517   2.745   0.012   4.275
   26        1.514   2.743   0.015   4.272
   27        1.513   2.747   0.016   4.276
   28        1.516   2.743   0.015   4.274
   29        1.516   2.744   0.015   4.274
   30        1.515   2.743   0.015   4.272
   31        1.513   2.747   0.016   4.276
   32        1.517   2.745   0.013   4.275
   33        1.514   2.743   0.015   4.272
   34        1.516   2.743   0.015   4.274
   35        1.517   2.746   0.012   4.275
   36        1.513   2.748   0.016   4.276
   37        1.514   2.743   0.015   4.272
   38        1.517   2.745   0.013   4.275
   39        1.516   2.744   0.015   4.274
   40        1.513   2.748   0.016   4.276
   41        1.518   2.742   0.011   4.272
   42        1.518   2.743   0.012   4.273
   43        1.514   2.742   0.017   4.274
   44        1.518   2.743   0.012   4.273
   45        1.518   2.742   0.011   4.272
   46        1.514   2.742   0.017   4.274
   47        1.518   2.742   0.012   4.272
   48        1.518   2.742   0.013   4.273
--------------------------------------------------
tot         65.134 100.211  76.094 241.438
 
 BZINTS: Fermi energy:    2.072334;  352.000000 electrons
         Band energy:-0.753308E+03;  BLOECHL correction:    0.000000

 total amount of memory used by VASP MPI-rank0  2770360. kBytes
=======================================================================

   base      :      30000. kBytes
   nonl-proj :     302376. kBytes
   fftplans  :      34720. kBytes
   grid      :      70000. kBytes
   one-center:        746. kBytes
   wavefun   :    2332518. kBytes
 
  
  
 General timing and accounting informations for this job:
 ========================================================
  
                  Total CPU time used (sec):      152.869
                            User time (sec):      147.840
                          System time (sec):        5.028
                         Elapsed time (sec):      153.706
  
                   Maximum memory used (kb):     4334212.
                   Average memory used (kb):           0.
  
                          Minor page faults:       423627
                          Major page faults:            0
                 Voluntary context switches:         2218
