 vasp.6.1.0 28Jan20 (build Jan 13 2021 21:44:47) complex                        
  
 executed on             LinuxIFC date 2021.09.12  19:29:50
 running on    9 total cores
 distrk:  each k-point on    1 cores,    9 groups
 distr:  one band on NCORE=   1 cores,    1 groups


--------------------------------------------------------------------------------------------------------


 INCAR:
 POTCAR:    PAW_PBE Ag 02Apr2005                  
 POTCAR:    PAW_PBE Bi 08Apr2002                  
 POTCAR:    PAW_PBE I 08Apr2002                   
 -----------------------------------------------------------------------------
|                                                                             |
|           W    W    AA    RRRRR   N    N  II  N    N   GGGG   !!!           |
|           W    W   A  A   R    R  NN   N  II  NN   N  G    G  !!!           |
|           W    W  A    A  R    R  N N  N  II  N N  N  G       !!!           |
|           W WW W  AAAAAA  RRRRR   N  N N  II  N  N N  G  GGG   !            |
|           WW  WW  A    A  R   R   N   NN  II  N   NN  G    G                |
|           W    W  A    A  R    R  N    N  II  N    N   GGGG   !!!           |
|                                                                             |
|     For optimal performance we recommend to set                             |
|       NCORE = 4 - approx SQRT(number of cores).                             |
|     NCORE specifies how many cores store one orbital (NPAR=cpu/NCORE).      |
|     This setting can greatly improve the performance of VASP for DFT.       |
|     The default, NCORE=1 might be grossly inefficient on modern             |
|     multi-core architectures or massively parallel machines. Do your        |
|     own testing!!!!                                                         |
|     Unfortunately you need to use the default for GW and RPA                |
|     calculations (for HF NCORE is supported but not extensively tested      |
|     yet).                                                                   |
|                                                                             |
 -----------------------------------------------------------------------------

 POTCAR:    PAW_PBE Ag 02Apr2005                  
   VRHFIN =Ag : s1 d10                                                                              
   LEXCH  = PE                                                                                      
   EATOM  =  1037.2675 eV,   76.2370 Ry                                                             
                                                                                                    
   TITEL  = PAW_PBE Ag 02Apr2005                                                                    
   LULTRA =        F    use ultrasoft PP ?                                                          
   IUNSCR =        1    unscreen: 0-lin 1-nonlin 2-no                                               
   RPACOR =    2.000    partial core radius                                                         
   POMASS =  107.868; ZVAL   =   11.000    mass and valenz                                          
   RCORE  =    2.500    outmost cutoff radius                                                       
   RWIGS  =    2.840; RWIGS  =    1.503    wigner-seitz radius (au A)                               
   ENMAX  =  249.844; ENMIN  =  187.383 eV                                                          
   ICORE  =        3    local potential                                                             
   LCOR   =        T    correct aug charges                                                         
   LPAW   =        T    paw PP                                                                      
   EAUG   =  412.496                                                                                
   DEXC   =    0.000                                                                                
   RMAX   =    2.560    core radius for proj-oper                                                   
   RAUG   =    1.300    factor for augmentation sphere                                              
   RDEP   =    2.576    radius for radial grids                                                     
   RDEPT  =    2.072    core radius for aug-charge                                                  
                                                                                                    
   Atomic configuration                                                                             
   12 entries                                                                                       
     n  l   j            E        occ.                                                              
     1  0  0.50    -25324.9161   2.0000                                                             
     2  0  0.50     -3728.5341   2.0000                                                             
     2  1  1.50     -3344.0404   6.0000                                                             
     3  0  0.50      -683.5581   2.0000                                                             
     3  1  1.50      -557.3225   6.0000                                                             
     3  2  2.50      -358.3853  10.0000                                                             
     4  0  0.50       -95.0341   2.0000                                                             
     4  1  1.50       -58.5511   6.0000                                                             
     4  2  2.50        -7.4440  10.0000                                                             
     5  0  0.50        -4.4045   1.0000                                                             
     5  1  0.50        -1.3606   0.0000                                                             
     4  3  2.50        -1.3606   0.0000                                                             
   Description                                                                                      
     l       E           TYP  RCUT    TYP  RCUT                                                     
     2     -7.4439781     23  2.400                                                                 
     2     -8.8045607     23  2.400                                                                 
     0     -4.4044681     23  2.400                                                                 
     0      1.9520038     23  2.400                                                                 
     1     -1.3605826     23  2.500                                                                 
     1     27.2116520     23  2.500                                                                 
     3     -4.0817478     23  2.400                                                                 
  local pseudopotential read in
  partial core-charges read in
  partial kinetic energy density read in
  atomic valenz-charges read in
  non local Contribution for L=           2  read in
    real space projection operators read in
  non local Contribution for L=           2  read in
    real space projection operators read in
  non local Contribution for L=           0  read in
    real space projection operators read in
  non local Contribution for L=           0  read in
    real space projection operators read in
  non local Contribution for L=           1  read in
    real space projection operators read in
  non local Contribution for L=           1  read in
    real space projection operators read in
    PAW grid and wavefunctions read in
 
   number of l-projection  operators is LMAX  =           6
   number of lm-projection operators is LMMAX =          18
 
 POTCAR:    PAW_PBE Bi 08Apr2002                  
   VRHFIN =Bi:                                                                                      
   LEXCH  = PE                                                                                      
   EATOM  =   150.8133 eV,   11.0845 Ry                                                             
                                                                                                    
   TITEL  = PAW_PBE Bi 08Apr2002                                                                    
   LULTRA =        F    use ultrasoft PP ?                                                          
   IUNSCR =        1    unscreen: 0-lin 1-nonlin 2-no                                               
   RPACOR =    2.200    partial core radius                                                         
   POMASS =  208.980; ZVAL   =    5.000    mass and valenz                                          
   RCORE  =    3.000    outmost cutoff radius                                                       
   RWIGS  =    3.090; RWIGS  =    1.635    wigner-seitz radius (au A)                               
   ENMAX  =  105.037; ENMIN  =   78.777 eV                                                          
   ICORE  =        3    local potential                                                             
   LCOR   =        T    correct aug charges                                                         
   LPAW   =        T    paw PP                                                                      
   EAUG   =  265.427                                                                                
   DEXC   =    0.000                                                                                
   RMAX   =    3.067    core radius for proj-oper                                                   
   RAUG   =    1.300    factor for augmentation sphere                                              
   RDEP   =    3.012    radius for radial grids                                                     
   RDEPT  =    2.604    core radius for aug-charge                                                  
                                                                                                    
   Atomic configuration                                                                             
   17 entries                                                                                       
     n  l   j            E        occ.                                                              
     1  0  0.50    -90639.6582   2.0000                                                             
     2  0  0.50    -16282.4667   2.0000                                                             
     2  1  1.50    -13922.8287   6.0000                                                             
     3  0  0.50     -3930.4763   2.0000                                                             
     3  1  1.50     -3256.7013   6.0000                                                             
     3  2  2.50     -2581.6169  10.0000                                                             
     4  0  0.50      -902.2614   2.0000                                                             
     4  1  1.50      -681.5915   6.0000                                                             
     4  2  2.50      -429.8249  10.0000                                                             
     4  3  3.50      -152.6004  14.0000                                                             
     5  0  0.50      -157.7156   2.0000                                                             
     5  1  1.50       -95.8054   6.0000                                                             
     5  2  2.50       -27.0806  10.0000                                                             
     6  0  0.50       -14.4732   2.0000                                                             
     6  1  1.50        -4.5702   3.0000                                                             
     6  2  2.50        -2.7212   0.0000                                                             
     5  3  2.50        -2.7212   0.0000                                                             
   Description                                                                                      
     l       E           TYP  RCUT    TYP  RCUT                                                     
     0    -14.4732299     23  3.000                                                                 
     0    -12.2452434     23  3.000                                                                 
     1     -4.5701666     23  3.000                                                                 
     1    -13.6058260     23  3.000                                                                 
     2     -2.7211652     23  3.000                                                                 
     3     -1.3605826      7  3.000                                                                 
  local pseudopotential read in
  partial core-charges read in
  partial kinetic energy density read in
  kinetic energy density of atom read in
  atomic valenz-charges read in
  non local Contribution for L=           0  read in
    real space projection operators read in
  non local Contribution for L=           0  read in
    real space projection operators read in
  non local Contribution for L=           1  read in
    real space projection operators read in
  non local Contribution for L=           1  read in
    real space projection operators read in
  non local Contribution for L=           2  read in
    real space projection operators read in
    PAW grid and wavefunctions read in
 
   number of l-projection  operators is LMAX  =           5
   number of lm-projection operators is LMMAX =          13
 
 POTCAR:    PAW_PBE I 08Apr2002                   
   VRHFIN =I : s2p5                                                                                 
   LEXCH  = PE                                                                                      
   EATOM  =   315.8678 eV,   23.2156 Ry                                                             
                                                                                                    
   TITEL  = PAW_PBE I 08Apr2002                                                                     
   LULTRA =        F    use ultrasoft PP ?                                                          
   IUNSCR =        1    unscreen: 0-lin 1-nonlin 2-no                                               
   RPACOR =    2.200    partial core radius                                                         
   POMASS =  126.904; ZVAL   =    7.000    mass and valenz                                          
   RCORE  =    2.300    outmost cutoff radius                                                       
   RWIGS  =    2.810; RWIGS  =    1.487    wigner-seitz radius (au A)                               
   ENMAX  =  175.647; ENMIN  =  131.735 eV                                                          
   ICORE  =        3    local potential                                                             
   LCOR   =        T    correct aug charges                                                         
   LPAW   =        T    paw PP                                                                      
   EAUG   =  370.139                                                                                
   DEXC   =    0.000                                                                                
   RMAX   =    2.359    core radius for proj-oper                                                   
   RAUG   =    1.300    factor for augmentation sphere                                              
   RDEP   =    2.392    radius for radial grids                                                     
   RDEPT  =    2.170    core radius for aug-charge                                                  
                                                                                                    
   Atomic configuration                                                                             
   13 entries                                                                                       
     n  l   j            E        occ.                                                              
     1  0  0.50    -32976.3739   2.0000                                                             
     2  0  0.50     -5094.5933   2.0000                                                             
     2  1  1.50     -4572.0131   6.0000                                                             
     3  0  0.50     -1028.2813   2.0000                                                             
     3  1  1.50      -859.0250   6.0000                                                             
     3  2  2.50      -605.7620  10.0000                                                             
     4  0  0.50      -180.5540   2.0000                                                             
     4  1  1.50      -127.5306   6.0000                                                             
     4  2  2.50       -50.2720  10.0000                                                             
     5  0  0.50       -17.4058   2.0000                                                             
     5  1  0.50        -7.0851   5.0000                                                             
     5  2  1.50        -7.0750   0.0000                                                             
     4  3  2.50        -7.0750   0.0000                                                             
   Description                                                                                      
     l       E           TYP  RCUT    TYP  RCUT                                                     
     0    -17.4058016     23  2.300                                                                 
     0    -18.7663842     23  2.300                                                                 
     1     -7.0850686     23  2.300                                                                 
     1     -4.2150896     23  2.300                                                                 
     2     -7.0750295     23  2.300                                                                 
     3     -1.3605826     23  2.300                                                                 
  local pseudopotential read in
  partial core-charges read in
  partial kinetic energy density read in
  atomic valenz-charges read in
  non local Contribution for L=           0  read in
    real space projection operators read in
  non local Contribution for L=           0  read in
    real space projection operators read in
  non local Contribution for L=           1  read in
    real space projection operators read in
  non local Contribution for L=           1  read in
    real space projection operators read in
  non local Contribution for L=           2  read in
    real space projection operators read in
    PAW grid and wavefunctions read in
 
   number of l-projection  operators is LMAX  =           5
   number of lm-projection operators is LMMAX =          13
 
 -----------------------------------------------------------------------------
|                                                                             |
|               ----> ADVICE to this user running VASP <----                  |
|                                                                             |
|     You have a (more or less) 'large supercell' and for larger cells it     |
|     might be more efficient to use real-space projection operators.         |
|     Therefore, try LREAL= Auto in the INCAR file.                           |
|     Mind: For very accurate calculation, you might also keep the            |
|     reciprocal projection scheme (i.e. LREAL=.FALSE.).                      |
|                                                                             |
 -----------------------------------------------------------------------------

  PAW_PBE Ag 02Apr2005                  :
 energy of atom  1       EATOM=-1037.2675
 kinetic energy error for atom=    0.0686 (will be added to EATOM!!)
  PAW_PBE Bi 08Apr2002                  :
 energy of atom  2       EATOM= -150.8133
 kinetic energy error for atom=    0.0004 (will be added to EATOM!!)
  PAW_PBE I 08Apr2002                   :
 energy of atom  3       EATOM= -315.8678
 kinetic energy error for atom=    0.0044 (will be added to EATOM!!)
 
 
 POSCAR: Generation Seed Number
  positions in direct lattice
  velocities in cartesian coordinates
 exchange correlation table for  LEXCH =        8
   RHO(1)=    0.500       N(1)  =     2000
   RHO(2)=  100.500       N(2)  =     4000
 


--------------------------------------------------------------------------------------------------------


 ion  position               nearest neighbor table
   1  0.250  0.253  0.002-  41 3.02  19 3.03  42 3.06  17 3.09  25 3.26  29 3.28
   2  0.775  0.740  0.005-  23 2.94  27 2.98  47 3.08  21 3.14  48 3.16  31 3.58
   3  0.000  0.724  0.776-  44 2.95  48 2.96  27 2.96  36 2.96
   4  0.275  0.012  0.245-  41 2.94  37 2.98  17 3.07  18 3.13  43 3.19  33 3.58
   5  0.500  0.025  0.475-  18 2.96  22 2.96  30 2.97  37 2.97
   6  0.749  0.498  0.247-  45 3.02  23 3.03  47 3.06  24 3.09  39 3.26  35 3.28
   7  0.225  0.494  0.760-  19 2.94  36 2.98  42 3.08  20 3.14  44 3.15  40 3.58
   8  0.725  0.255  0.488-  45 2.94  30 2.98  24 3.06  22 3.13  46 3.19  26 3.58
   9  0.004  0.999  0.002-  17 3.03  27 3.06  33 3.13  34 3.14  21 3.20  25 3.20
  10  0.500  0.500  1.000-  19 3.11  23 3.11  29 3.12  39 3.12  40 3.14  31 3.14
  11  1.000  0.250  0.250-  45 3.11  35 3.11  41 3.11  25 3.11  26 3.14  33 3.14
  12  0.996  0.498  0.501-  24 3.03  36 3.06  26 3.13  28 3.14  20 3.20  35 3.20
  13  0.750  0.998  0.748-  48 3.07  22 3.07  34 3.14  38 3.14  46 3.18  21 3.18
  14  0.503  0.751  0.249-  47 3.04  37 3.06  31 3.13  32 3.14  43 3.19  39 3.20
  15  0.497  0.251  0.749-  42 3.04  30 3.06  40 3.13  38 3.14  46 3.19  29 3.20
  16  0.250  0.752  0.502-  44 3.07  18 3.07  28 3.14  32 3.14  43 3.18  20 3.18
  17  0.242  0.011  0.007-   9 3.03   4 3.07   1 3.09
  18  0.270  0.992  0.490-   5 2.96  16 3.07   4 3.13
  19  0.256  0.491  0.989-   7 2.94   1 3.03  10 3.11
  20  0.247  0.502  0.514-   7 3.14  16 3.18  12 3.20
  21  0.753  0.986  0.998-   2 3.14  13 3.18   9 3.20
  22  0.730  0.010  0.508-   5 2.96  13 3.07   8 3.13
  23  0.744  0.511  0.009-   2 2.94   6 3.03  10 3.11
  24  0.758  0.494  0.489-  12 3.03   8 3.06   6 3.09
  25  0.993  0.250  0.005-  11 3.11   9 3.20   1 3.26
  26  0.007  0.253  0.496-  12 3.13  11 3.14   8 3.58
  27  0.008  0.759  0.006-   3 2.96   2 2.98   9 3.06
  28  0.004  0.745  0.490-  16 3.14  12 3.14
  29  0.507  0.256  0.000-  10 3.12  15 3.20   1 3.28
  30  0.492  0.256  0.509-   5 2.97   8 2.98  15 3.06
  31  0.493  0.747  0.003-  14 3.13  10 3.14   2 3.58
  32  0.496  0.740  0.495-  16 3.14  14 3.14
  33  0.993  0.004  0.247-   9 3.13  11 3.14   4 3.58
  34  0.996  0.011  0.755-  13 3.14   9 3.14
  35  0.007  0.495  0.250-  11 3.11  12 3.20   6 3.28
  36  0.992  0.494  0.741-   3 2.96   7 2.98  12 3.06
  37  0.508  0.991  0.245-   5 2.97   4 2.98  14 3.06
  38  0.504  0.005  0.760-  13 3.14  15 3.14
  39  0.493  0.500  0.244-  10 3.12  14 3.20   6 3.26
  40  0.507  0.497  0.753-  15 3.13  10 3.14   7 3.58
  41  0.244  0.241  0.239-   4 2.94   1 3.02  11 3.11
  42  0.258  0.255  0.762-  15 3.04   1 3.06   7 3.08
  43  0.253  0.762  0.252-  16 3.18  14 3.19   4 3.19
  44  0.229  0.742  0.742-   3 2.95  16 3.07   7 3.15
  45  0.756  0.261  0.259-   8 2.94   6 3.02  11 3.11
  46  0.747  0.248  0.738-  13 3.18  15 3.19   8 3.19
  47  0.741  0.738  0.245-  14 3.04   6 3.06   2 3.08
  48  0.771  0.758  0.758-   3 2.96  13 3.07   2 3.16
 
 -----------------------------------------------------------------------------
|                                                                             |
|           W    W    AA    RRRRR   N    N  II  N    N   GGGG   !!!           |
|           W    W   A  A   R    R  NN   N  II  NN   N  G    G  !!!           |
|           W    W  A    A  R    R  N N  N  II  N N  N  G       !!!           |
|           W WW W  AAAAAA  RRRRR   N  N N  II  N  N N  G  GGG   !            |
|           WW  WW  A    A  R   R   N   NN  II  N   NN  G    G                |
|           W    W  A    A  R    R  N    N  II  N    N   GGGG   !!!           |
|                                                                             |
|     The determination of the symmetry of your systems shows a strong        |
|     dependence on the tolerance parameter SYMPREC. This is often the        |
|     result of "noise" in the structural parameters (lattice vectors         |
|     and/or ionic positions). Set NWRITE=3 for more details.                 |
|                                                                             |
 -----------------------------------------------------------------------------

  LATTYP: Found a base centered monoclinic cell.
 ALAT       =    59.6980673309
 B/A-ratio  =     0.3014351179
 C/A-ratio  =     0.6395932419
 COS(beta)  =    -0.9949382968
  
  Lattice vectors:
  
 A1 = (  12.7291985560,  25.4530981211,  12.7289722300)
 A2 = (  12.7293306779,  12.7285242816,  25.4533043258)
 A3 = ( -12.7301990903, -25.4541608933, -25.4544600286)


Analysis of symmetry for initial positions (statically):
=====================================================================
 Subroutine PRICEL returns:
 Original cell was already a primitive cell.
 

 Routine SETGRP: Setting up the symmetry group for a 
 base centered monoclinic supercell.


 Subroutine GETGRP returns: Found  1 space group operations
 (whereof  1 operations were pure point group operations)
 out of a pool of  4 trial point group operations.


The static configuration has the point symmetry C_1 .


Analysis of symmetry for dynamics (positions and initial velocities):
=====================================================================
 Subroutine PRICEL returns:
 Original cell was already a primitive cell.
 

 Routine SETGRP: Setting up the symmetry group for a 
 base centered monoclinic supercell.


 Subroutine GETGRP returns: Found  1 space group operations
 (whereof  1 operations were pure point group operations)
 out of a pool of  4 trial point group operations.


The dynamic configuration has the point symmetry C_1 .


 Subroutine INISYM returns: Found  1 space group operations
 (whereof  1 operations are pure point group operations),
 and found     1 'primitive' translations


----------------------------------------------------------------------------------------

                                     Primitive cell                                     

  volume of cell :    2060.9222

  direct lattice vectors                    reciprocal lattice vectors
    12.726461197  0.000762125  0.001173026     0.078576440 -0.000005362 -0.000006178
     0.000868412 12.725636612  0.001155703    -0.000004705  0.078581531 -0.000006562
     0.001000534  0.001062772 12.725487799    -0.000007243 -0.000007136  0.078582450

  length of vectors
    12.726461274 12.725636694 12.725487882     0.078576440  0.078581532  0.078582451

  position of ions in fractional coordinates (direct lattice)
     0.249571816  0.253023164  0.002065284
     0.774663755  0.740408729  0.005480575
     0.000014721  0.724355388  0.775697734
     0.274680005  0.011738413  0.245250571
     0.499865956  0.024730314  0.475388633
     0.749251505  0.498141135  0.246973550
     0.225242203  0.494484475  0.759720446
     0.725058713  0.255112111  0.488445523
     0.003921067  0.998820613  0.001724928
     0.499844197  0.500331063  0.999726250
     0.999832126  0.250439672  0.249842744
     0.996021152  0.498440805  0.501281809
     0.750199348  0.998078595  0.748120585
     0.503212077  0.750809554  0.248810204
     0.496640773  0.251221630  0.749357297
     0.249758521  0.751882102  0.502050026
     0.241775797  0.010598927  0.006524909
     0.270140112  0.992311143  0.490182476
     0.255635727  0.490568206  0.988947218
     0.247155389  0.501948201  0.513828997
     0.752794592  0.986153323  0.998108988
     0.729776183  0.010180930  0.507714890
     0.744079731  0.511411962  0.009269404
     0.758167992  0.493525118  0.489431988
     0.993183126  0.250100279  0.005240979
     0.006585927  0.253037074  0.496399956
     0.008346358  0.758647038  0.005797782
     0.003666103  0.745022721  0.489523738
     0.507074072  0.255639525  0.000461738
     0.491953468  0.255560579  0.509056552
     0.493161279  0.746777725  0.003351529
     0.496029469  0.739814184  0.495432118
     0.993112716  0.003772773  0.247100415
     0.996253913  0.010617786  0.755112010
     0.006679144  0.494937162  0.250014504
     0.991500942  0.494101410  0.741461133
     0.507967261  0.991003850  0.244526733
     0.503889690  0.004596543  0.760190399
     0.492985343  0.499528838  0.244479479
     0.506552004  0.496706164  0.753351721
     0.244078189  0.240755558  0.239261597
     0.258309464  0.255027197  0.761878100
     0.252765612  0.761876024  0.252177627
     0.229119145  0.741740360  0.742268447
     0.755672687  0.261041236  0.259134855
     0.747023078  0.248000199  0.738345426
     0.741493955  0.738278729  0.245082700
     0.770860677  0.757889779  0.758008274

  ion indices of the primitive-cell ions
   primitive index   ion index
                 1           1
                 2           2
                 3           3
                 4           4
                 5           5
                 6           6
                 7           7
                 8           8
                 9           9
                10          10
                11          11
                12          12
                13          13
                14          14
                15          15
                16          16
                17          17
                18          18
                19          19
                20          20
                21          21
                22          22
                23          23
                24          24
                25          25
                26          26
                27          27
                28          28
                29          29
                30          30
                31          31
                32          32
                33          33
                34          34
                35          35
                36          36
                37          37
                38          38
                39          39
                40          40
                41          41
                42          42
                43          43
                44          44
                45          45
                46          46
                47          47
                48          48

----------------------------------------------------------------------------------------

 
 
 KPOINTS: agbii                                   

Automatic generation of k-mesh.
Space group operators:
 irot       det(A)        alpha          n_x          n_y          n_z        tau_x        tau_y        tau_z
    1     1.000000     0.000000     1.000000     0.000000     0.000000     0.000000     0.000000     0.000000
 TETIRR: Found    192 inequivalent tetrahedra from      384
 
 Subroutine IBZKPT returns following result:
 ===========================================
 
 Found     36 irreducible k-points:
 
 Following reciprocal coordinates:
            Coordinates               Weight
  0.000000  0.000000  0.000000      1.000000
  0.250000  0.000000 -0.000000      2.000000
  0.500000 -0.000000  0.000000      1.000000
 -0.000000  0.250000  0.000000      2.000000
  0.000000 -0.000000 -0.250000      2.000000
  0.250000  0.250000 -0.000000      2.000000
 -0.250000  0.000000 -0.250000      2.000000
  0.500000  0.250000  0.000000      2.000000
  0.500000 -0.000000 -0.250000      2.000000
 -0.250000  0.250000 -0.000000      2.000000
  0.250000  0.000000 -0.250000      2.000000
 -0.000000  0.500000  0.000000      1.000000
 -0.000000  0.000000  0.500000      1.000000
  0.250000  0.500000 -0.000000      2.000000
 -0.250000 -0.000000  0.500000      2.000000
  0.500000  0.500000  0.000000      1.000000
  0.500000 -0.000000  0.500000      1.000000
 -0.000000  0.250000  0.250000      2.000000
  0.250000  0.250000  0.250000      2.000000
  0.500000  0.250000  0.250000      2.000000
 -0.250000  0.250000  0.250000      2.000000
 -0.000000  0.500000  0.250000      2.000000
 -0.000000 -0.250000  0.500000      2.000000
  0.250000  0.500000  0.250000      2.000000
 -0.250000 -0.250000  0.500000      2.000000
  0.500000  0.500000  0.250000      2.000000
  0.500000 -0.250000  0.500000      2.000000
 -0.250000  0.500000  0.250000      2.000000
  0.250000 -0.250000  0.500000      2.000000
  0.000000 -0.250000  0.250000      2.000000
  0.250000 -0.250000  0.250000      2.000000
 -0.250000 -0.250000  0.250000      2.000000
  0.500000 -0.250000  0.250000      2.000000
 -0.000000  0.500000  0.500000      1.000000
  0.250000  0.500000  0.500000      2.000000
  0.500000  0.500000  0.500000      1.000000
 
 Following cartesian coordinates:
            Coordinates               Weight
  0.000000  0.000000  0.000000      1.000000
  0.019644 -0.000001 -0.000002      2.000000
  0.039288 -0.000003 -0.000003      1.000000
 -0.000001  0.019645 -0.000002      2.000000
  0.000002  0.000002 -0.019646      2.000000
  0.019643  0.019644 -0.000003      2.000000
 -0.019642  0.000003 -0.019644      2.000000
  0.039287  0.019643 -0.000005      2.000000
  0.039290 -0.000001 -0.019649      2.000000
 -0.019645  0.019647 -0.000000      2.000000
  0.019646  0.000000 -0.019647      2.000000
 -0.000002  0.039291 -0.000003      1.000000
 -0.000004 -0.000004  0.039291      1.000000
  0.019642  0.039289 -0.000005      2.000000
 -0.019648 -0.000002  0.039293      2.000000
  0.039286  0.039288 -0.000006      1.000000
  0.039285 -0.000006  0.039288      1.000000
 -0.000003  0.019644  0.019644      2.000000
  0.019641  0.019642  0.019642      2.000000
  0.039285  0.019641  0.019641      2.000000
 -0.019647  0.019645  0.019646      2.000000
 -0.000004  0.039289  0.019642      2.000000
 -0.000002 -0.019649  0.039293      2.000000
  0.019640  0.039288  0.019641      2.000000
 -0.019647 -0.019648  0.039294      2.000000
  0.039284  0.039286  0.019639      2.000000
  0.039286 -0.019652  0.039290      2.000000
 -0.019648  0.039290  0.019644      2.000000
  0.019642 -0.019650  0.039291      2.000000
 -0.000001 -0.019647  0.019647      2.000000
  0.019643 -0.019649  0.019646      2.000000
 -0.019645 -0.019646  0.019649      2.000000
  0.039288 -0.019650  0.019644      2.000000
 -0.000006  0.039287  0.039288      1.000000
  0.019638  0.039286  0.039286      2.000000
  0.039282  0.039285  0.039285      1.000000
 


--------------------------------------------------------------------------------------------------------




 Dimension of arrays:
   k-points           NKPTS =     36   k-points in BZ     NKDIM =     36   number of bands    NBANDS=    211
   number of dos      NEDOS =   3000   number of ions     NIONS =     48
   non local maximal  LDIM  =      6   non local SUM 2l+1 LMDIM =     18
   total plane-waves  NPLWV = 125000
   max r-space proj   IRMAX =      1   max aug-charges    IRDMAX=   5976
   dimension x,y,z NGX =    50 NGY =   50 NGZ =   50
   dimension x,y,z NGXF=   100 NGYF=  100 NGZF=  100
   support grid    NGXF=   100 NGYF=  100 NGZF=  100
   ions per type =               8   8  32
   NGX,Y,Z   is equivalent  to a cutoff of   6.53,  6.53,  6.53 a.u.
   NGXF,Y,Z  is equivalent  to a cutoff of  13.06, 13.06, 13.06 a.u.

 SYSTEM =  unknown system                          
 POSCAR =  Generation Seed Number                  

 Startparameter for this run:
   NWRITE =      2    write-flag & timer
   PREC   = normal    normal or accurate (medium, high low for compatibility)
   ISTART =      1    job   : 0-new  1-cont  2-samecut
   ICHARG =      1    charge: 1-file 2-atom 10-const
   ISPIN  =      1    spin polarized calculation?
   LNONCOLLINEAR =      F non collinear calculations
   LSORBIT =      F    spin-orbit coupling
   INIWAV =      1    electr: 0-lowe 1-rand  2-diag
   LASPH  =      F    aspherical Exc in radial PAW
   METAGGA=      F    non-selfconsistent MetaGGA calc.

 Electronic Relaxation 1
   ENCUT  =  250.0 eV  18.37 Ry    4.29 a.u.  16.41 16.41 16.41*2*pi/ulx,y,z
   ENINI  =  250.0     initial cutoff
   ENAUG  =  412.5 eV  augmentation charge cutoff
   NELM   =     60;   NELMIN=  2; NELMDL=  0     # of ELM steps 
   EDIFF  = 0.1E-05   stopping-criterion for ELM
   LREAL  =      F    real-space projection
   NLSPLINE    = F    spline interpolate recip. space projectors
   LCOMPAT=      F    compatible to vasp.4.4
   GGA_COMPAT  = T    GGA compatible to vasp.4.4-vasp.4.6
   LMAXPAW     = -100 max onsite density
   LMAXMIX     =    4 max onsite mixed and CHGCAR
   VOSKOWN=      0    Vosko Wilk Nusair interpolation
   ROPT   =    0.00000   0.00000   0.00000
 Ionic relaxation
   EDIFFG = -.1E-01   stopping-criterion for IOM
   NSW    =      0    number of steps for IOM
   NBLOCK =      1;   KBLOCK =      1    inner block; outer block 
   IBRION =     -1    ionic relax: 0-MD 1-quasi-New 2-CG
   NFREE  =      0    steps in history (QN), initial steepest desc. (CG)
   ISIF   =     -1    stress and relaxation
   IWAVPR =     10    prediction:  0-non 1-charg 2-wave 3-comb
   ISYM   =      2    0-nonsym 1-usesym 2-fastsym
   LCORR  =      T    Harris-Foulkes like correction to forces

   POTIM  = 0.5000    time-step for ionic-motion
   TEIN   =    0.0    initial temperature
   TEBEG  =    0.0;   TEEND  =   0.0 temperature during run
   SMASS  =  -3.00    Nose mass-parameter (am)
   estimated Nose-frequenzy (Omega)   =  0.10E-29 period in steps = 0.13E+47 mass=  -0.370E-26a.u.
   SCALEE = 1.0000    scale energy and forces
   NPACO  =    256;   APACO  = 16.0  distance and # of slots for P.C.
   PSTRESS=    0.0 pullay stress

  Mass of Ions in am
   POMASS = 107.87208.98126.90
  Ionic Valenz
   ZVAL   =  11.00  5.00  7.00
  Atomic Wigner-Seitz radii
   RWIGS  =  -1.00 -1.00 -1.00
  virtual crystal weights 
   VCA    =   1.00  1.00  1.00
   NELECT =     352.0000    total number of electrons
   NUPDOWN=      -1.0000    fix difference up-down

 DOS related values:
   EMIN   =  10.00;   EMAX   =-10.00  energy-range for DOS
   EFERMI =   0.00
   ISMEAR =    -5;   SIGMA  =   0.20  broadening in eV -4-tet -1-fermi 0-gaus

 Electronic relaxation 2 (details)
   IALGO  =     38    algorithm
   LDIAG  =      T    sub-space diagonalisation (order eigenvalues)
   LSUBROT=      F    optimize rotation matrix (better conditioning)
   TURBO    =      0    0=normal 1=particle mesh
   IRESTART =      0    0=no restart 2=restart with 2 vectors
   NREBOOT  =      0    no. of reboots
   NMIN     =      0    reboot dimension
   EREF     =   0.00    reference energy to select bands
   IMIX   =      4    mixing-type and parameters
     AMIX     =   0.40;   BMIX     =  1.00
     AMIX_MAG =   1.60;   BMIX_MAG =  1.00
     AMIN     =   0.10
     WC   =   100.;   INIMIX=   1;  MIXPRE=   1;  MAXMIX= -45

 Intra band minimization:
   WEIMIN = 0.0000     energy-eigenvalue tresh-hold
   EBREAK =  0.12E-08  absolut break condition
   DEPER  =   0.30     relativ break condition  

   TIME   =   0.40     timestep for ELM

  volume/ion in A,a.u.               =      42.94       289.75
  Fermi-wavevector in a.u.,A,eV,Ry     =   0.908312  1.716461 11.225231  0.825031
  Thomas-Fermi vector in A             =   2.032224
 
 Write flags
   LWAVE        =      T    write WAVECAR
   LDOWNSAMPLE  =      F    k-point downsampling of WAVECAR
   LCHARG       =      T    write CHGCAR
   LVTOT        =      F    write LOCPOT, total local potential
   LVHAR        =      F    write LOCPOT, Hartree potential only
   LELF         =      F    write electronic localiz. function (ELF)
   LORBIT       =     10    0 simple, 1 ext, 2 COOP (PROOUT), +10 PAW based schemes


 Dipole corrections
   LMONO  =      F    monopole corrections only (constant potential shift)
   LDIPOL =      F    correct potential (dipole corrections)
   IDIPOL =      0    1-x, 2-y, 3-z, 4-all directions 
   EPSILON=  1.0000000 bulk dielectric constant

 Exchange correlation treatment:
   GGA     =    --    GGA type
   LEXCH   =     8    internal setting for exchange type
   VOSKOWN=      0    Vosko Wilk Nusair interpolation
   LHFCALC =     F    Hartree Fock is set to
   LHFONE  =     F    Hartree Fock one center treatment
   AEXX    =    0.0000 exact exchange contribution

 Linear response parameters
   LEPSILON=     F    determine dielectric tensor
   LRPA    =     F    only Hartree local field effects (RPA)
   LNABLA  =     F    use nabla operator in PAW spheres
   LVEL    =     F    velocity operator in full k-point grid
   LINTERFAST=   F  fast interpolation
   KINTER  =     0    interpolate to denser k-point grid
   CSHIFT  =0.1000    complex shift for real part using Kramers Kronig
   OMEGAMAX=  -1.0    maximum frequency
   DEG_THRESHOLD= 0.2000000E-02 threshold for treating states as degnerate
   RTIME   =   -0.100 relaxation time in fs
  (WPLASMAI=    0.000 imaginary part of plasma frequency in eV, 0.658/RTIME)
   DFIELD  = 0.0000000 0.0000000 0.0000000 field for delta impulse in time
 
 Orbital magnetization related:
   ORBITALMAG=     F  switch on orbital magnetization
   LCHIMAG   =     F  perturbation theory with respect to B field
   DQ        =  0.001000  dq finite difference perturbation B field
   LLRAUG    =     F  two centre corrections for induced B field



--------------------------------------------------------------------------------------------------------


 Static calculation
 charge density and potential will be updated during run
 non-spin polarized calculation
 Variant of blocked Davidson
 Davidson routine will perform the subspace rotation
 perform sub-space diagonalisation
    after iterative eigenvector-optimisation
 modified Broyden-mixing scheme, WC =      100.0
 initial mixing is a Kerker type mixing with AMIX =  0.4000 and BMIX =      1.0000
 Hartree-type preconditioning will be used
 using additional bands           35
 reciprocal scheme for non local part
 use partial core corrections
 calculate Harris-corrections to forces 
   (improved forces if not selfconsistent)
 use gradient corrections 
 use of overlap-Matrix (Vanderbilt PP)
 Fermi weights with tetrahedron method with Bloechl corrections


--------------------------------------------------------------------------------------------------------


  energy-cutoff  :      250.00
  volume of cell :     2060.92
      direct lattice vectors                 reciprocal lattice vectors
    12.726461197  0.000762125  0.001173026     0.078576440 -0.000005362 -0.000006178
     0.000868412 12.725636612  0.001155703    -0.000004705  0.078581531 -0.000006562
     0.001000534  0.001062772 12.725487799    -0.000007243 -0.000007136  0.078582450

  length of vectors
    12.726461274 12.725636694 12.725487882     0.078576440  0.078581532  0.078582451


 
 old parameters found on file WAVECAR:
  energy-cutoff  :      250.00
  volume of cell :     2060.92
      direct lattice vectors                 reciprocal lattice vectors
    12.726461197  0.000762125  0.001173026     0.078576440 -0.000005362 -0.000006178
     0.000868412 12.725636612  0.001155703    -0.000004705  0.078581531 -0.000006562
     0.001000534  0.001062772 12.725487799    -0.000007243 -0.000007136  0.078582450

  length of vectors

 
 k-points in units of 2pi/SCALE and weight: agbii                                   
   0.00000000  0.00000000  0.00000000       0.016
   0.01964411 -0.00000134 -0.00000154       0.031
   0.03928822 -0.00000268 -0.00000309       0.016
  -0.00000118  0.01964538 -0.00000164       0.031
   0.00000181  0.00000178 -0.01964561       0.031
   0.01964293  0.01964404 -0.00000318       0.031
  -0.01964230  0.00000312 -0.01964407       0.031
   0.03928704  0.01964270 -0.00000473       0.031
   0.03929003 -0.00000090 -0.01964870       0.031
  -0.01964529  0.01964672 -0.00000010       0.031
   0.01964592  0.00000044 -0.01964716       0.031
  -0.00000235  0.03929077 -0.00000328       0.016
  -0.00000362 -0.00000357  0.03929123       0.016
   0.01964176  0.03928943 -0.00000483       0.031
  -0.01964773 -0.00000223  0.03929277       0.031
   0.03928587  0.03928808 -0.00000637       0.016
   0.03928460 -0.00000625  0.03928814       0.016
  -0.00000299  0.01964360  0.01964397       0.031
   0.01964112  0.01964226  0.01964243       0.031
   0.03928523  0.01964092  0.01964088       0.031
  -0.01964710  0.01964494  0.01964552       0.031
  -0.00000416  0.03928898  0.01964233       0.031
  -0.00000245 -0.01964895  0.03929287       0.031
   0.01963995  0.03928764  0.01964079       0.031
  -0.01964655 -0.01964761  0.03929441       0.031
   0.03928406  0.03928630  0.01963924       0.031
   0.03928577 -0.01965163  0.03928978       0.031
  -0.01964827  0.03929032  0.01964388       0.031
   0.01964166 -0.01965029  0.03929132       0.031
  -0.00000063 -0.01964717  0.01964725       0.031
   0.01964348 -0.01964851  0.01964571       0.031
  -0.01964474 -0.01964583  0.01964880       0.031
   0.03928759 -0.01964985  0.01964416       0.031
  -0.00000597  0.03928720  0.03928794       0.016
   0.01963814  0.03928586  0.03928640       0.031
   0.03928225  0.03928452  0.03928486       0.016
 
 k-points in reciprocal lattice and weights: agbii                                   
   0.00000000  0.00000000  0.00000000       0.016
   0.25000000  0.00000000 -0.00000000       0.031
   0.50000000 -0.00000000  0.00000000       0.016
  -0.00000000  0.25000000  0.00000000       0.031
   0.00000000 -0.00000000 -0.25000000       0.031
   0.25000000  0.25000000 -0.00000000       0.031
  -0.25000000  0.00000000 -0.25000000       0.031
   0.50000000  0.25000000  0.00000000       0.031
   0.50000000 -0.00000000 -0.25000000       0.031
  -0.25000000  0.25000000 -0.00000000       0.031
   0.25000000  0.00000000 -0.25000000       0.031
  -0.00000000  0.50000000  0.00000000       0.016
  -0.00000000  0.00000000  0.50000000       0.016
   0.25000000  0.50000000 -0.00000000       0.031
  -0.25000000 -0.00000000  0.50000000       0.031
   0.50000000  0.50000000  0.00000000       0.016
   0.50000000 -0.00000000  0.50000000       0.016
  -0.00000000  0.25000000  0.25000000       0.031
   0.25000000  0.25000000  0.25000000       0.031
   0.50000000  0.25000000  0.25000000       0.031
  -0.25000000  0.25000000  0.25000000       0.031
  -0.00000000  0.50000000  0.25000000       0.031
  -0.00000000 -0.25000000  0.50000000       0.031
   0.25000000  0.50000000  0.25000000       0.031
  -0.25000000 -0.25000000  0.50000000       0.031
   0.50000000  0.50000000  0.25000000       0.031
   0.50000000 -0.25000000  0.50000000       0.031
  -0.25000000  0.50000000  0.25000000       0.031
   0.25000000 -0.25000000  0.50000000       0.031
   0.00000000 -0.25000000  0.25000000       0.031
   0.25000000 -0.25000000  0.25000000       0.031
  -0.25000000 -0.25000000  0.25000000       0.031
   0.50000000 -0.25000000  0.25000000       0.031
  -0.00000000  0.50000000  0.50000000       0.016
   0.25000000  0.50000000  0.50000000       0.031
   0.50000000  0.50000000  0.50000000       0.016
 
 position of ions in fractional coordinates (direct lattice) 
   0.24957182  0.25302316  0.00206528
   0.77466376  0.74040873  0.00548058
   0.00001472  0.72435539  0.77569773
   0.27468000  0.01173841  0.24525057
   0.49986596  0.02473031  0.47538863
   0.74925151  0.49814114  0.24697355
   0.22524220  0.49448448  0.75972045
   0.72505871  0.25511211  0.48844552
   0.00392107  0.99882061  0.00172493
   0.49984420  0.50033106  0.99972625
   0.99983213  0.25043967  0.24984274
   0.99602115  0.49844081  0.50128181
   0.75019935  0.99807859  0.74812058
   0.50321208  0.75080955  0.24881020
   0.49664077  0.25122163  0.74935730
   0.24975852  0.75188210  0.50205003
   0.24177580  0.01059893  0.00652491
   0.27014011  0.99231114  0.49018248
   0.25563573  0.49056821  0.98894722
   0.24715539  0.50194820  0.51382900
   0.75279459  0.98615332  0.99810899
   0.72977618  0.01018093  0.50771489
   0.74407973  0.51141196  0.00926940
   0.75816799  0.49352512  0.48943199
   0.99318313  0.25010028  0.00524098
   0.00658593  0.25303707  0.49639996
   0.00834636  0.75864704  0.00579778
   0.00366610  0.74502272  0.48952374
   0.50707407  0.25563952  0.00046174
   0.49195347  0.25556058  0.50905655
   0.49316128  0.74677773  0.00335153
   0.49602947  0.73981418  0.49543212
   0.99311272  0.00377277  0.24710042
   0.99625391  0.01061779  0.75511201
   0.00667914  0.49493716  0.25001450
   0.99150094  0.49410141  0.74146113
   0.50796726  0.99100385  0.24452673
   0.50388969  0.00459654  0.76019040
   0.49298534  0.49952884  0.24447948
   0.50655200  0.49670616  0.75335172
   0.24407819  0.24075556  0.23926160
   0.25830946  0.25502720  0.76187810
   0.25276561  0.76187602  0.25217763
   0.22911915  0.74174036  0.74226845
   0.75567269  0.26104124  0.25913485
   0.74702308  0.24800020  0.73834543
   0.74149395  0.73827873  0.24508270
   0.77086068  0.75788978  0.75800827
 
 position of ions in cartesian coordinates  (Angst):
   3.17638783  3.22007324  0.02686692
   9.85937669  9.42276865  0.07150738
   0.00159250  9.21870784  9.87196920
   3.49596000  0.14984876  3.12126892
   6.36202181  0.31559518  6.05016719
   9.53599991  6.33999657  3.14431350
   2.86772569  6.29360881  9.66864896
   9.22814183  3.24753572  6.21685290
   0.05077042 12.71063298  0.02310949
   6.36268254  6.36847472 12.72316876
  12.72479222  3.18803179  3.18083306
  12.67675895  6.34426840  6.38079995
   9.54899816 12.70255233  9.52223286
   6.40500993  9.55517748  3.16768921
   6.32144744  3.19813008  9.53681005
   3.17969739  9.56890232  6.38999341
   3.07696603  0.13506929  0.08332850
   3.43927984 12.62851785  6.23927481
   3.25475365  6.24403858 12.58570257
   3.14636347  6.38834486  6.53959465
   9.58226619 12.55106331 12.70344650
   9.28798510  0.13065458  6.46178744
   9.46995521  6.50861973  0.11942155
   9.64971381  6.28151928  6.22972051
  12.63992895  3.18344777  0.06814809
   0.08453195  3.22059043  6.31723174
   0.10688422  9.65427904  0.07466616
   0.04779328  9.48141146  6.23029368
   6.45348097  3.25356264  0.00676609
   6.26155798  3.25308701  6.47886537
   6.27684975  9.50360137  0.04409138
   6.31383795  9.41551103  6.30605223
  12.63906095  0.04903042  3.14564263
  12.67955150  0.13667987  9.61034958
   0.08568182  6.29866126  3.18213636
  12.61946921  6.28929865  9.43718869
   6.46573090 12.61180188  3.11346313
   6.41349718  0.05968587  9.67439004
   6.27463725  6.35745801  3.11227621
   6.44779952  6.32208885  9.58793637
   3.10670006  3.06420805  3.04528508
   3.28834912  3.24639000  9.69586821
   3.21772569  9.69581807  3.21026032
   2.91726271  9.44008176  9.44685406
   9.61752510  3.32276723  3.29880554
   9.50791432  3.15731443  9.39696861
   9.43748038  9.39589240  3.12051992
   9.81174506  9.64602300  9.64780517
 


--------------------------------------------------------------------------------------------------------


 k-point   1 :   0.0000 0.0000 0.0000  plane waves:   18613
 k-point   2 :   0.2500 0.0000-0.0000  plane waves:   18533
 k-point   3 :   0.5000-0.0000 0.0000  plane waves:   18468
 k-point   4 :  -0.0000 0.2500 0.0000  plane waves:   18533
 k-point   5 :   0.0000-0.0000-0.2500  plane waves:   18533
 k-point   6 :   0.2500 0.2500-0.0000  plane waves:   18504
 k-point   7 :  -0.2500 0.0000-0.2500  plane waves:   18504
 k-point   8 :   0.5000 0.2500 0.0000  plane waves:   18506
 k-point   9 :   0.5000-0.0000-0.2500  plane waves:   18506
 k-point  10 :  -0.2500 0.2500-0.0000  plane waves:   18504
 k-point  11 :   0.2500 0.0000-0.2500  plane waves:   18504
 k-point  12 :  -0.0000 0.5000 0.0000  plane waves:   18464
 k-point  13 :  -0.0000 0.0000 0.5000  plane waves:   18464
 k-point  14 :   0.2500 0.5000-0.0000  plane waves:   18506
 k-point  15 :  -0.2500-0.0000 0.5000  plane waves:   18506
 k-point  16 :   0.5000 0.5000 0.0000  plane waves:   18528
 k-point  17 :   0.5000-0.0000 0.5000  plane waves:   18528
 k-point  18 :  -0.0000 0.2500 0.2500  plane waves:   18509
 k-point  19 :   0.2500 0.2500 0.2500  plane waves:   18488
 k-point  20 :   0.5000 0.2500 0.2500  plane waves:   18478
 k-point  21 :  -0.2500 0.2500 0.2500  plane waves:   18504
 k-point  22 :  -0.0000 0.5000 0.2500  plane waves:   18506
 k-point  23 :  -0.0000-0.2500 0.5000  plane waves:   18506
 k-point  24 :   0.2500 0.5000 0.2500  plane waves:   18478
 k-point  25 :  -0.2500-0.2500 0.5000  plane waves:   18478
 k-point  26 :   0.5000 0.5000 0.2500  plane waves:   18500
 k-point  27 :   0.5000-0.2500 0.5000  plane waves:   18500
 k-point  28 :  -0.2500 0.5000 0.2500  plane waves:   18478
 k-point  29 :   0.2500-0.2500 0.5000  plane waves:   18478
 k-point  30 :   0.0000-0.2500 0.2500  plane waves:   18504
 k-point  31 :   0.2500-0.2500 0.2500  plane waves:   18503
 k-point  32 :  -0.2500-0.2500 0.2500  plane waves:   18505
 k-point  33 :   0.5000-0.2500 0.2500  plane waves:   18478
 k-point  34 :  -0.0000 0.5000 0.5000  plane waves:   18528
 k-point  35 :   0.2500 0.5000 0.5000  plane waves:   18500
 k-point  36 :   0.5000 0.5000 0.5000  plane waves:   18504

 maximum and minimum number of plane-waves per node :     18613    18464

 maximum number of plane-waves:     18613
 maximum index in each direction: 
   IXMAX=   16   IYMAX=   16   IZMAX=   16
   IXMIN=  -16   IYMIN=  -16   IZMIN=  -16


 serial   3D FFT for wavefunctions
 parallel 3D FFT for charge:
    minimum data exchange during FFTs selected (reduces bandwidth)


 total amount of memory used by VASP MPI-rank0  2782079. kBytes
=======================================================================

   base      :      30000. kBytes
   nonl-proj :     303764. kBytes
   fftplans  :      34720. kBytes
   grid      :      70000. kBytes
   one-center:        746. kBytes
   wavefun   :    2342849. kBytes
 
     INWAV:  cpu time    4.5877: real time    4.7752
 Broyden mixing: mesh for mixing (old mesh)
   NGX = 33   NGY = 33   NGZ = 33
  (NGX  =100   NGY  =100   NGZ  =100)
  gives a total of  35937 points

 initial charge density was supplied:
 number of electron     352.0000447 magnetization 
 keeping initial charge density in first step


--------------------------------------------------------------------------------------------------------


 Maximum index for augmentation-charges         5610 (set IRDMAX)


--------------------------------------------------------------------------------------------------------


 First call to EWALD:  gamma=   0.139
 Maximum number of real-space cells 3x 3x 3
 Maximum number of reciprocal cells 3x 3x 3

    FEWALD:  cpu time    0.0027: real time    0.0027


--------------------------------------- Iteration      1(   1)  ---------------------------------------


    POTLOK:  cpu time    0.5886: real time    0.5967
    SETDIJ:  cpu time    0.0272: real time    0.0272
     EDDAV:  cpu time   64.3012: real time   64.3906
 BZINTS: Fermi energy:    2.055473;  352.000000 electrons
         Band energy:-0.758166E+03;  BLOECHL correction:    0.000000
       DOS:  cpu time    0.0554: real time    0.0554
    CHARGE:  cpu time    1.2223: real time    1.2224
    MIXING:  cpu time    0.0228: real time    0.0228
    --------------------------------------------
      LOOP:  cpu time   66.2176: real time   66.3152

 eigenvalue-minimisations  : 11984
 total energy-change (2. order) :-0.1199644E+03  (-0.3698265E-06)
 number of electron     352.0000447 magnetization 
 augmentation part      -23.1214387 magnetization 

 Broyden mixing:
  rms(total) = 0.71980E-03    rms(broyden)= 0.71977E-03
  rms(prec ) = 0.83530E-03
  weight for this iteration     100.00

 Free energy of the ion-electron system (eV)
  ---------------------------------------------------
  alpha Z        PSCENC =       225.96599555
  Ewald energy   TEWEN  =    -13872.96582283
  -Hartree energ DENC   =     -6076.65521416
  -exchange      EXHF   =         0.00000000
  -V(xc)+E(xc)   XCENC  =     -1392.37509087
  PAW double counting   =     22637.88607676   -20495.37861067
  entropy T*S    EENTRO =         0.00000000
  eigenvalues    EBANDS =      -758.16550005
  atomic energy  EATOM  =     19611.72375700
  Solvation  Ediel_sol  =         0.00000000
  ---------------------------------------------------
  free energy    TOTEN  =      -119.96440927 eV

  energy without entropy =     -119.96440927  energy(sigma->0) =     -119.96440927


--------------------------------------------------------------------------------------------------------




--------------------------------------- Iteration      1(   2)  ---------------------------------------


    POTLOK:  cpu time    0.5928: real time    0.5929
    SETDIJ:  cpu time    0.0301: real time    0.0301
     EDDAV:  cpu time   49.5710: real time   49.5722
 BZINTS: Fermi energy:    2.055363;  352.000000 electrons
         Band energy:-0.758164E+03;  BLOECHL correction:    0.000000
       DOS:  cpu time    0.0577: real time    0.0577
    --------------------------------------------
      LOOP:  cpu time   50.2516: real time   50.2528

 eigenvalue-minimisations  :  8208
 total energy-change (2. order) : 0.1468652E-06  (-0.1507553E-06)
 number of electron     352.0000447 magnetization 
 augmentation part      -23.1214387 magnetization 

 Free energy of the ion-electron system (eV)
  ---------------------------------------------------
  alpha Z        PSCENC =       225.96599555
  Ewald energy   TEWEN  =    -13872.96582283
  -Hartree energ DENC   =     -6076.65680405
  -exchange      EXHF   =         0.00000000
  -V(xc)+E(xc)   XCENC  =     -1392.37465981
  PAW double counting   =     22637.46387356   -20494.95717026
  entropy T*S    EENTRO =         0.00000000
  eigenvalues    EBANDS =      -758.16357829
  atomic energy  EATOM  =     19611.72375700
  Solvation  Ediel_sol  =         0.00000000
  ---------------------------------------------------
  free energy    TOTEN  =      -119.96440913 eV

  energy without entropy =     -119.96440913  energy(sigma->0) =     -119.96440913


--------------------------------------------------------------------------------------------------------




 average (electrostatic) potential at core
  the test charge radii are     1.1249  1.4024  1.1875
  (the norm of the test charge is              1.0000)
       1 -75.0007       2 -75.0602       3 -75.1895       4 -75.0665       5 -75.1892
       6 -75.0009       7 -75.0599       8 -75.0663       9 -65.5333      10 -65.5030
      11 -65.5054      12 -65.5332      13 -65.4759      14 -65.5304      15 -65.5296
      16 -65.4764      17 -93.0811      18 -93.0966      19 -92.9979      20 -93.1930
      21 -93.1931      22 -93.0957      23 -92.9971      24 -93.0819      25 -93.3197
      26 -93.3361      27 -93.2325      28 -93.3202      29 -93.3136      30 -93.2295
      31 -93.3334      32 -93.3230      33 -93.3339      34 -93.3195      35 -93.3170
      36 -93.2309      37 -93.2312      38 -93.3225      39 -93.3166      40 -93.3347
      41 -93.0059      42 -93.0748      43 -93.1762      44 -93.0805      45 -93.0066
      46 -93.1749      47 -93.0756      48 -93.0784
 
 
 
 E-fermi :   2.0554     XC(G=0):  -7.8011     alpha+bet : -7.7665


 k-point     1 :       0.0000    0.0000    0.0000
  band No.  band energies     occupation 
      1     -10.8437      2.00000
      2     -10.7144      2.00000
      3     -10.6691      2.00000
      4     -10.5341      2.00000
      5     -10.4807      2.00000
      6     -10.2561      2.00000
      7     -10.2218      2.00000
      8     -10.0424      2.00000
      9      -9.8893      2.00000
     10      -9.8803      2.00000
     11      -9.8673      2.00000
     12      -9.8495      2.00000
     13      -9.8439      2.00000
     14      -9.8071      2.00000
     15      -9.8056      2.00000
     16      -9.7408      2.00000
     17      -9.7302      2.00000
     18      -9.7137      2.00000
     19      -9.7049      2.00000
     20      -9.7031      2.00000
     21      -9.6825      2.00000
     22      -9.6595      2.00000
     23      -9.6529      2.00000
     24      -9.6240      2.00000
     25      -9.6126      2.00000
     26      -9.6060      2.00000
     27      -9.5869      2.00000
     28      -9.5611      2.00000
     29      -9.5531      2.00000
     30      -9.5478      2.00000
     31      -9.5407      2.00000
     32      -9.5088      2.00000
     33      -8.2225      2.00000
     34      -8.1228      2.00000
     35      -8.1125      2.00000
     36      -7.8821      2.00000
     37      -7.8557      2.00000
     38      -7.6459      2.00000
     39      -7.6312      2.00000
     40      -7.6306      2.00000
     41      -1.8207      2.00000
     42      -1.7610      2.00000
     43      -1.7175      2.00000
     44      -1.7029      2.00000
     45      -1.6545      2.00000
     46      -1.5868      2.00000
     47      -1.5301      2.00000
     48      -1.4762      2.00000
     49      -1.4707      2.00000
     50      -1.4375      2.00000
     51      -1.4329      2.00000
     52      -1.3923      2.00000
     53      -1.3543      2.00000
     54      -1.3257      2.00000
     55      -1.3180      2.00000
     56      -1.2761      2.00000
     57      -1.2336      2.00000
     58      -1.2239      2.00000
     59      -1.1555      2.00000
     60      -1.1108      2.00000
     61      -1.1005      2.00000
     62      -1.0650      2.00000
     63      -1.0189      2.00000
     64      -1.0185      2.00000
     65      -1.0161      2.00000
     66      -0.9994      2.00000
     67      -0.9857      2.00000
     68      -0.9826      2.00000
     69      -0.9618      2.00000
     70      -0.9222      2.00000
     71      -0.9176      2.00000
     72      -0.9166      2.00000
     73      -0.8859      2.00000
     74      -0.8507      2.00000
     75      -0.8461      2.00000
     76      -0.8189      2.00000
     77      -0.8118      2.00000
     78      -0.8063      2.00000
     79      -0.7795      2.00000
     80      -0.7325      2.00000
     81      -0.7014      2.00000
     82      -0.6981      2.00000
     83      -0.6612      2.00000
     84      -0.6411      2.00000
     85      -0.6309      2.00000
     86      -0.6155      2.00000
     87      -0.5786      2.00000
     88      -0.5519      2.00000
     89      -0.5409      2.00000
     90      -0.5073      2.00000
     91      -0.4874      2.00000
     92      -0.4707      2.00000
     93      -0.4633      2.00000
     94      -0.4166      2.00000
     95      -0.4007      2.00000
     96      -0.3745      2.00000
     97      -0.3545      2.00000
     98      -0.3517      2.00000
     99      -0.3277      2.00000
    100      -0.3219      2.00000
    101      -0.2865      2.00000
    102      -0.2650      2.00000
    103      -0.2581      2.00000
    104      -0.2274      2.00000
    105      -0.2099      2.00000
    106      -0.2028      2.00000
    107      -0.1755      2.00000
    108      -0.1554      2.00000
    109      -0.1284      2.00000
    110      -0.1186      2.00000
    111      -0.0621      2.00000
    112      -0.0480      2.00000
    113       0.0770      2.00000
    114       0.1263      2.00000
    115       0.1652      2.00000
    116       0.1775      2.00000
    117       0.1828      2.00000
    118       0.2123      2.00000
    119       0.2358      2.00000
    120       0.2426      2.00000
    121       0.2539      2.00000
    122       0.2894      2.00000
    123       0.3527      2.00000
    124       0.3971      2.00000
    125       0.3977      2.00000
    126       0.4155      2.00000
    127       0.4794      2.00000
    128       0.5178      2.00000
    129       0.5265      2.00000
    130       0.5268      2.00000
    131       0.5417      2.00000
    132       0.5504      2.00000
    133       0.5843      2.00000
    134       0.6379      2.00000
    135       0.6923      2.00000
    136       0.7071      2.00000
    137       0.7104      2.00000
    138       0.7166      2.00000
    139       0.7267      2.00000
    140       0.7783      2.00000
    141       0.7852      2.00000
    142       0.7917      2.00000
    143       0.8203      2.00000
    144       0.8376      2.00000
    145       0.8467      2.00000
    146       0.8901      2.00000
    147       0.9382      2.00000
    148       0.9625      2.00000
    149       0.9878      2.00000
    150       1.0278      2.00000
    151       1.0648      2.00000
    152       1.0921      2.00000
    153       1.1026      2.00000
    154       1.1491      2.00000
    155       1.1630      2.00000
    156       1.1714      2.00000
    157       1.1943      2.00000
    158       1.2034      2.00000
    159       1.2390      2.00000
    160       1.3063      2.00000
    161       1.3575      2.00000
    162       1.4011      2.00000
    163       1.4553      2.00000
    164       1.4843      2.00000
    165       1.5322      2.00000
    166       1.5459      2.00000
    167       1.5709      2.00000
    168       1.5968      2.00000
    169       1.7541      2.00000
    170       1.7592      2.00000
    171       1.8737      2.00000
    172       1.8894      2.00000
    173       2.0011      2.00000
    174       2.0098      2.00000
    175       2.0278      2.00000
    176       2.0553      2.00000
    177       3.8363      0.00000
    178       3.9995      0.00000
    179       4.0053      0.00000
    180       4.1196      0.00000
    181       4.1587      0.00000
    182       4.3406      0.00000
    183       4.3417      0.00000
    184       4.3900      0.00000
    185       4.4207      0.00000
    186       4.4350      0.00000
    187       4.5166      0.00000
    188       4.5282      0.00000
    189       4.5533      0.00000
    190       4.5630      0.00000
    191       4.5973      0.00000
    192       4.6052      0.00000
    193       4.6404      0.00000
    194       4.6985      0.00000
    195       4.7305      0.00000
    196       4.7323      0.00000
    197       4.7959      0.00000
    198       4.8257      0.00000
    199       4.8331      0.00000
    200       4.9506      0.00000
    201       5.0710      0.00000
    202       5.2674      0.00000
    203       5.5745      0.00000
    204       5.7172      0.00000
    205       5.9112      0.00000
    206       5.9309      0.00000
    207       5.9486      0.00000
    208       5.9851      0.00000
    209       7.1557      0.00000
    210       7.2609      0.00000
    211       7.2712      0.00000

 k-point     2 :       0.2500    0.0000   -0.0000
  band No.  band energies     occupation 
      1     -10.8296      2.00000
      2     -10.7446      2.00000
      3     -10.6448      2.00000
      4     -10.5639      2.00000
      5     -10.4451      2.00000
      6     -10.3174      2.00000
      7     -10.1606      2.00000
      8     -10.0585      2.00000
      9      -9.8901      2.00000
     10      -9.8822      2.00000
     11      -9.8598      2.00000
     12      -9.8515      2.00000
     13      -9.8478      2.00000
     14      -9.8245      2.00000
     15      -9.7847      2.00000
     16      -9.7353      2.00000
     17      -9.7342      2.00000
     18      -9.7194      2.00000
     19      -9.6992      2.00000
     20      -9.6941      2.00000
     21      -9.6827      2.00000
     22      -9.6754      2.00000
     23      -9.6385      2.00000
     24      -9.6255      2.00000
     25      -9.6209      2.00000
     26      -9.6066      2.00000
     27      -9.5790      2.00000
     28      -9.5572      2.00000
     29      -9.5525      2.00000
     30      -9.5495      2.00000
     31      -9.5426      2.00000
     32      -9.5156      2.00000
     33      -8.2164      2.00000
     34      -8.1637      2.00000
     35      -8.0641      2.00000
     36      -7.9397      2.00000
     37      -7.8005      2.00000
     38      -7.6764      2.00000
     39      -7.6341      2.00000
     40      -7.6096      2.00000
     41      -1.8053      2.00000
     42      -1.7474      2.00000
     43      -1.7315      2.00000
     44      -1.6816      2.00000
     45      -1.6769      2.00000
     46      -1.5918      2.00000
     47      -1.5419      2.00000
     48      -1.4990      2.00000
     49      -1.4591      2.00000
     50      -1.4513      2.00000
     51      -1.4351      2.00000
     52      -1.3966      2.00000
     53      -1.3372      2.00000
     54      -1.3158      2.00000
     55      -1.2848      2.00000
     56      -1.2752      2.00000
     57      -1.2702      2.00000
     58      -1.2011      2.00000
     59      -1.1516      2.00000
     60      -1.1418      2.00000
     61      -1.0994      2.00000
     62      -1.0909      2.00000
     63      -1.0825      2.00000
     64      -1.0295      2.00000
     65      -1.0249      2.00000
     66      -1.0016      2.00000
     67      -0.9921      2.00000
     68      -0.9500      2.00000
     69      -0.9460      2.00000
     70      -0.9264      2.00000
     71      -0.9108      2.00000
     72      -0.9063      2.00000
     73      -0.8910      2.00000
     74      -0.8580      2.00000
     75      -0.8296      2.00000
     76      -0.8156      2.00000
     77      -0.8002      2.00000
     78      -0.7819      2.00000
     79      -0.7579      2.00000
     80      -0.7466      2.00000
     81      -0.7133      2.00000
     82      -0.6731      2.00000
     83      -0.6497      2.00000
     84      -0.6317      2.00000
     85      -0.6302      2.00000
     86      -0.6079      2.00000
     87      -0.5859      2.00000
     88      -0.5528      2.00000
     89      -0.5286      2.00000
     90      -0.4858      2.00000
     91      -0.4828      2.00000
     92      -0.4724      2.00000
     93      -0.4493      2.00000
     94      -0.4129      2.00000
     95      -0.3887      2.00000
     96      -0.3771      2.00000
     97      -0.3711      2.00000
     98      -0.3461      2.00000
     99      -0.3228      2.00000
    100      -0.3208      2.00000
    101      -0.2882      2.00000
    102      -0.2766      2.00000
    103      -0.2724      2.00000
    104      -0.2249      2.00000
    105      -0.2227      2.00000
    106      -0.2085      2.00000
    107      -0.1858      2.00000
    108      -0.1788      2.00000
    109      -0.1528      2.00000
    110      -0.1445      2.00000
    111      -0.1125      2.00000
    112      -0.0786      2.00000
    113       0.0722      2.00000
    114       0.1440      2.00000
    115       0.1692      2.00000
    116       0.1797      2.00000
    117       0.2321      2.00000
    118       0.2451      2.00000
    119       0.2654      2.00000
    120       0.2785      2.00000
    121       0.3015      2.00000
    122       0.3465      2.00000
    123       0.3614      2.00000
    124       0.4010      2.00000
    125       0.4106      2.00000
    126       0.4165      2.00000
    127       0.4393      2.00000
    128       0.4668      2.00000
    129       0.4947      2.00000
    130       0.5173      2.00000
    131       0.5473      2.00000
    132       0.5617      2.00000
    133       0.6171      2.00000
    134       0.6494      2.00000
    135       0.6590      2.00000
    136       0.6707      2.00000
    137       0.7218      2.00000
    138       0.7297      2.00000
    139       0.7334      2.00000
    140       0.7569      2.00000
    141       0.7761      2.00000
    142       0.7927      2.00000
    143       0.8072      2.00000
    144       0.8437      2.00000
    145       0.8479      2.00000
    146       0.9089      2.00000
    147       0.9507      2.00000
    148       0.9560      2.00000
    149       0.9913      2.00000
    150       1.0209      2.00000
    151       1.0344      2.00000
    152       1.0931      2.00000
    153       1.1172      2.00000
    154       1.1489      2.00000
    155       1.1678      2.00000
    156       1.1778      2.00000
    157       1.1956      2.00000
    158       1.2232      2.00000
    159       1.2456      2.00000
    160       1.2717      2.00000
    161       1.4130      2.00000
    162       1.4477      2.00000
    163       1.4518      2.00000
    164       1.4618      2.00000
    165       1.5421      2.00000
    166       1.5678      2.00000
    167       1.5982      2.00000
    168       1.6077      2.00000
    169       1.7319      2.00000
    170       1.7424      2.00000
    171       1.8063      2.00000
    172       1.8154      2.00000
    173       1.9874      2.00000
    174       2.0031      2.00000
    175       2.0183      2.00000
    176       2.0445      2.00000
    177       3.8657      0.00000
    178       3.9653      0.00000
    179       4.0654      0.00000
    180       4.1222      0.00000
    181       4.1950      0.00000
    182       4.3118      0.00000
    183       4.3647      0.00000
    184       4.4095      0.00000
    185       4.4180      0.00000
    186       4.4482      0.00000
    187       4.5065      0.00000
    188       4.5095      0.00000
    189       4.5163      0.00000
    190       4.5649      0.00000
    191       4.5686      0.00000
    192       4.6350      0.00000
    193       4.6764      0.00000
    194       4.6973      0.00000
    195       4.7328      0.00000
    196       4.7491      0.00000
    197       4.7527      0.00000
    198       4.7872      0.00000
    199       4.8269      0.00000
    200       4.9193      0.00000
    201       5.1849      0.00000
    202       5.3483      0.00000
    203       5.6132      0.00000
    204       5.7043      0.00000
    205       5.8264      0.00000
    206       5.8816      0.00000
    207       5.9134      0.00000
    208       5.9307      0.00000
    209       7.1893      0.00000
    210       7.3687      0.00000
    211       7.3831      0.00000

 k-point     3 :       0.5000   -0.0000    0.0000
  band No.  band energies     occupation 
      1     -10.7930      2.00000
      2     -10.7907      2.00000
      3     -10.6067      2.00000
      4     -10.6056      2.00000
      5     -10.3859      2.00000
      6     -10.3854      2.00000
      7     -10.1014      2.00000
      8     -10.0975      2.00000
      9      -9.8878      2.00000
     10      -9.8860      2.00000
     11      -9.8581      2.00000
     12      -9.8551      2.00000
     13      -9.8395      2.00000
     14      -9.8382      2.00000
     15      -9.7586      2.00000
     16      -9.7544      2.00000
     17      -9.7290      2.00000
     18      -9.7249      2.00000
     19      -9.6951      2.00000
     20      -9.6917      2.00000
     21      -9.6792      2.00000
     22      -9.6779      2.00000
     23      -9.6326      2.00000
     24      -9.6298      2.00000
     25      -9.6172      2.00000
     26      -9.6163      2.00000
     27      -9.5676      2.00000
     28      -9.5647      2.00000
     29      -9.5486      2.00000
     30      -9.5465      2.00000
     31      -9.5363      2.00000
     32      -9.5308      2.00000
     33      -8.1976      2.00000
     34      -8.1968      2.00000
     35      -8.0060      2.00000
     36      -8.0043      2.00000
     37      -7.7367      2.00000
     38      -7.7358      2.00000
     39      -7.6153      2.00000
     40      -7.6130      2.00000
     41      -1.7688      2.00000
     42      -1.7660      2.00000
     43      -1.7180      2.00000
     44      -1.7160      2.00000
     45      -1.6285      2.00000
     46      -1.6264      2.00000
     47      -1.5358      2.00000
     48      -1.5334      2.00000
     49      -1.4690      2.00000
     50      -1.4680      2.00000
     51      -1.4080      2.00000
     52      -1.4031      2.00000
     53      -1.3225      2.00000
     54      -1.3197      2.00000
     55      -1.2865      2.00000
     56      -1.2786      2.00000
     57      -1.2017      2.00000
     58      -1.1998      2.00000
     59      -1.1944      2.00000
     60      -1.1937      2.00000
     61      -1.1068      2.00000
     62      -1.1030      2.00000
     63      -1.0629      2.00000
     64      -1.0585      2.00000
     65      -1.0254      2.00000
     66      -1.0236      2.00000
     67      -0.9757      2.00000
     68      -0.9698      2.00000
     69      -0.9278      2.00000
     70      -0.9245      2.00000
     71      -0.8983      2.00000
     72      -0.8975      2.00000
     73      -0.8810      2.00000
     74      -0.8766      2.00000
     75      -0.8101      2.00000
     76      -0.8020      2.00000
     77      -0.7941      2.00000
     78      -0.7867      2.00000
     79      -0.7515      2.00000
     80      -0.7439      2.00000
     81      -0.7034      2.00000
     82      -0.7021      2.00000
     83      -0.6322      2.00000
     84      -0.6311      2.00000
     85      -0.5787      2.00000
     86      -0.5779      2.00000
     87      -0.5695      2.00000
     88      -0.5690      2.00000
     89      -0.5261      2.00000
     90      -0.5230      2.00000
     91      -0.4785      2.00000
     92      -0.4784      2.00000
     93      -0.4226      2.00000
     94      -0.4194      2.00000
     95      -0.3822      2.00000
     96      -0.3812      2.00000
     97      -0.3455      2.00000
     98      -0.3384      2.00000
     99      -0.3262      2.00000
    100      -0.3199      2.00000
    101      -0.2978      2.00000
    102      -0.2913      2.00000
    103      -0.2271      2.00000
    104      -0.2237      2.00000
    105      -0.2127      2.00000
    106      -0.2117      2.00000
    107      -0.2022      2.00000
    108      -0.2007      2.00000
    109      -0.1978      2.00000
    110      -0.1944      2.00000
    111      -0.1466      2.00000
    112      -0.1433      2.00000
    113       0.0907      2.00000
    114       0.0926      2.00000
    115       0.2028      2.00000
    116       0.2031      2.00000
    117       0.2833      2.00000
    118       0.2843      2.00000
    119       0.3194      2.00000
    120       0.3255      2.00000
    121       0.3559      2.00000
    122       0.3568      2.00000
    123       0.3853      2.00000
    124       0.3890      2.00000
    125       0.4288      2.00000
    126       0.4299      2.00000
    127       0.4447      2.00000
    128       0.4456      2.00000
    129       0.4690      2.00000
    130       0.4725      2.00000
    131       0.5414      2.00000
    132       0.5418      2.00000
    133       0.5798      2.00000
    134       0.5839      2.00000
    135       0.6987      2.00000
    136       0.7002      2.00000
    137       0.7281      2.00000
    138       0.7310      2.00000
    139       0.7508      2.00000
    140       0.7520      2.00000
    141       0.7902      2.00000
    142       0.7979      2.00000
    143       0.8180      2.00000
    144       0.8187      2.00000
    145       0.8437      2.00000
    146       0.8480      2.00000
    147       0.9402      2.00000
    148       0.9427      2.00000
    149       1.0063      2.00000
    150       1.0075      2.00000
    151       1.0800      2.00000
    152       1.0827      2.00000
    153       1.1455      2.00000
    154       1.1473      2.00000
    155       1.1824      2.00000
    156       1.1832      2.00000
    157       1.2053      2.00000
    158       1.2075      2.00000
    159       1.2316      2.00000
    160       1.2321      2.00000
    161       1.4373      2.00000
    162       1.4389      2.00000
    163       1.5076      2.00000
    164       1.5093      2.00000
    165       1.6013      2.00000
    166       1.6047      2.00000
    167       1.6434      2.00000
[...]
    143       0.7971      2.00000
    144       0.8823      2.00000
    145       0.9106      2.00000
    146       0.9525      2.00000
    147       0.9831      2.00000
    148       1.0075      2.00000
    149       1.0134      2.00000
    150       1.0491      2.00000
    151       1.0625      2.00000
    152       1.0869      2.00000
    153       1.1016      2.00000
    154       1.1081      2.00000
    155       1.1541      2.00000
    156       1.1612      2.00000
    157       1.1967      2.00000
    158       1.2283      2.00000
    159       1.2372      2.00000
    160       1.2565      2.00000
    161       1.4803      2.00000
    162       1.4826      2.00000
    163       1.5386      2.00000
    164       1.5552      2.00000
    165       1.5847      2.00000
    166       1.5888      2.00000
    167       1.6285      2.00000
    168       1.6415      2.00000
    169       1.7343      2.00000
    170       1.7709      2.00000
    171       1.8342      2.00000
    172       1.8435      2.00000
    173       1.8553      2.00000
    174       1.8717      2.00000
    175       2.0129      2.00000
    176       2.0296      2.00000
    177       3.7174      0.00000
    178       3.7802      0.00000
    179       3.9656      0.00000
    180       4.0222      0.00000
    181       4.0823      0.00000
    182       4.1097      0.00000
    183       4.2394      0.00000
    184       4.2855      0.00000
    185       4.3281      0.00000
    186       4.3825      0.00000
    187       4.4427      0.00000
    188       4.4577      0.00000
    189       4.6065      0.00000
    190       4.6221      0.00000
    191       4.6523      0.00000
    192       4.7222      0.00000
    193       4.7826      0.00000
    194       4.7942      0.00000
    195       4.8022      0.00000
    196       4.8207      0.00000
    197       4.8858      0.00000
    198       4.8898      0.00000
    199       4.9513      0.00000
    200       4.9790      0.00000
    201       5.5414      0.00000
    202       5.5540      0.00000
    203       5.5847      0.00000
    204       5.6006      0.00000
    205       5.6155      0.00000
    206       5.6750      0.00000
    207       5.7639      0.00000
    208       5.8040      0.00000
    209       7.3562      0.00000
    210       7.4023      0.00000
    211       7.5154      0.00000

 k-point    36 :       0.5000    0.5000    0.5000
  band No.  band energies     occupation 
      1     -10.7694      2.00000
      2     -10.7671      2.00000
      3     -10.6407      2.00000
      4     -10.6399      2.00000
      5     -10.3838      2.00000
      6     -10.3831      2.00000
      7     -10.1179      2.00000
      8     -10.1143      2.00000
      9      -9.9057      2.00000
     10      -9.9053      2.00000
     11      -9.8192      2.00000
     12      -9.8165      2.00000
     13      -9.7909      2.00000
     14      -9.7904      2.00000
     15      -9.7494      2.00000
     16      -9.7489      2.00000
     17      -9.7276      2.00000
     18      -9.7264      2.00000
     19      -9.7047      2.00000
     20      -9.7003      2.00000
     21      -9.6956      2.00000
     22      -9.6938      2.00000
     23      -9.6385      2.00000
     24      -9.6322      2.00000
     25      -9.6154      2.00000
     26      -9.6121      2.00000
     27      -9.5850      2.00000
     28      -9.5821      2.00000
     29      -9.5507      2.00000
     30      -9.5474      2.00000
     31      -9.5379      2.00000
     32      -9.5365      2.00000
     33      -8.1993      2.00000
     34      -8.1981      2.00000
     35      -8.0054      2.00000
     36      -8.0035      2.00000
     37      -7.7652      2.00000
     38      -7.7635      2.00000
     39      -7.5878      2.00000
     40      -7.5855      2.00000
     41      -1.7822      2.00000
     42      -1.7794      2.00000
     43      -1.6759      2.00000
     44      -1.6751      2.00000
     45      -1.6326      2.00000
     46      -1.6308      2.00000
     47      -1.5386      2.00000
     48      -1.5375      2.00000
     49      -1.4902      2.00000
     50      -1.4891      2.00000
     51      -1.4579      2.00000
     52      -1.4568      2.00000
     53      -1.3778      2.00000
     54      -1.3774      2.00000
     55      -1.2863      2.00000
     56      -1.2854      2.00000
     57      -1.2689      2.00000
     58      -1.2677      2.00000
     59      -1.1406      2.00000
     60      -1.1358      2.00000
     61      -1.0461      2.00000
     62      -1.0426      2.00000
     63      -1.0105      2.00000
     64      -1.0050      2.00000
     65      -0.9972      2.00000
     66      -0.9880      2.00000
     67      -0.9685      2.00000
     68      -0.9650      2.00000
     69      -0.9182      2.00000
     70      -0.9090      2.00000
     71      -0.8856      2.00000
     72      -0.8827      2.00000
     73      -0.8699      2.00000
     74      -0.8677      2.00000
     75      -0.8436      2.00000
     76      -0.8426      2.00000
     77      -0.8301      2.00000
     78      -0.8252      2.00000
     79      -0.7447      2.00000
     80      -0.7435      2.00000
     81      -0.6954      2.00000
     82      -0.6917      2.00000
     83      -0.6248      2.00000
     84      -0.6221      2.00000
     85      -0.5911      2.00000
     86      -0.5875      2.00000
     87      -0.5501      2.00000
     88      -0.5491      2.00000
     89      -0.5203      2.00000
     90      -0.5160      2.00000
     91      -0.4794      2.00000
     92      -0.4779      2.00000
     93      -0.4064      2.00000
     94      -0.4020      2.00000
     95      -0.3832      2.00000
     96      -0.3806      2.00000
     97      -0.3610      2.00000
     98      -0.3569      2.00000
     99      -0.3148      2.00000
    100      -0.3104      2.00000
    101      -0.3069      2.00000
    102      -0.3040      2.00000
    103      -0.2585      2.00000
    104      -0.2524      2.00000
    105      -0.2107      2.00000
    106      -0.2082      2.00000
    107      -0.1871      2.00000
    108      -0.1828      2.00000
    109      -0.1457      2.00000
    110      -0.1437      2.00000
    111      -0.0849      2.00000
    112      -0.0809      2.00000
    113       0.0356      2.00000
    114       0.0377      2.00000
    115       0.1465      2.00000
    116       0.1478      2.00000
    117       0.2318      2.00000
    118       0.2373      2.00000
    119       0.2844      2.00000
    120       0.2870      2.00000
    121       0.3668      2.00000
    122       0.3694      2.00000
    123       0.3720      2.00000
    124       0.3736      2.00000
    125       0.4226      2.00000
    126       0.4231      2.00000
    127       0.4567      2.00000
    128       0.4582      2.00000
    129       0.5117      2.00000
    130       0.5171      2.00000
    131       0.5518      2.00000
    132       0.5546      2.00000
    133       0.5722      2.00000
    134       0.5786      2.00000
    135       0.6088      2.00000
    136       0.6090      2.00000
    137       0.6667      2.00000
    138       0.6719      2.00000
    139       0.6980      2.00000
    140       0.7054      2.00000
    141       0.7377      2.00000
    142       0.7427      2.00000
    143       0.8792      2.00000
    144       0.8819      2.00000
    145       0.9059      2.00000
    146       0.9139      2.00000
    147       1.0324      2.00000
    148       1.0364      2.00000
    149       1.0514      2.00000
    150       1.0565      2.00000
    151       1.0743      2.00000
    152       1.0754      2.00000
    153       1.0893      2.00000
    154       1.0903      2.00000
    155       1.1745      2.00000
    156       1.1756      2.00000
    157       1.2022      2.00000
    158       1.2033      2.00000
    159       1.2667      2.00000
    160       1.2694      2.00000
    161       1.4745      2.00000
    162       1.4764      2.00000
    163       1.5744      2.00000
    164       1.5774      2.00000
    165       1.5834      2.00000
    166       1.5854      2.00000
    167       1.6933      2.00000
    168       1.6942      2.00000
    169       1.7694      2.00000
    170       1.7720      2.00000
    171       1.8332      2.00000
    172       1.8350      2.00000
    173       1.8645      2.00000
    174       1.8652      2.00000
    175       2.0219      2.00000
    176       2.0229      2.00000
    177       3.7061      0.00000
    178       3.7085      0.00000
    179       3.9130      0.00000
    180       3.9149      0.00000
    181       4.0423      0.00000
    182       4.0447      0.00000
    183       4.2290      0.00000
    184       4.2300      0.00000
    185       4.3123      0.00000
    186       4.3173      0.00000
    187       4.4237      0.00000
    188       4.4244      0.00000
    189       4.6118      0.00000
    190       4.6158      0.00000
    191       4.7009      0.00000
    192       4.7045      0.00000
    193       4.8159      0.00000
    194       4.8205      0.00000
    195       4.8491      0.00000
    196       4.8494      0.00000
    197       4.9505      0.00000
    198       4.9511      0.00000
    199       5.0288      0.00000
    200       5.0307      0.00000
    201       5.5352      0.00000
    202       5.5364      0.00000
    203       5.5661      0.00000
    204       5.5672      0.00000
    205       5.5956      0.00000
    206       5.6153      0.00000
    207       5.8008      0.00000
    208       5.8012      0.00000
    209       7.2443      0.00000
    210       7.2468      0.00000
    211       7.5028      0.00000


--------------------------------------------------------------------------------------------------------


 soft charge-density along one line, spin component           1
         0         1         2         3         4         5         6         7         8         9
 total charge-density along one line
 
 pseudopotential strength for first ion, spin component:           1
 -6.428  -0.000  -0.000   0.000  -0.000  -6.564  -0.000  -0.000
 -0.000  -6.417   0.000   0.000  -0.000  -0.000  -6.553   0.000
 -0.000   0.000  -6.411  -0.001   0.007  -0.000   0.000  -6.548
  0.000   0.000  -0.001  -6.428  -0.000   0.000   0.000  -0.001
 -0.000  -0.000   0.007  -0.000  -6.419  -0.000  -0.000   0.006
 -6.564  -0.000  -0.000   0.000  -0.000  -6.669  -0.000  -0.000
 -0.000  -6.553   0.000   0.000  -0.000  -0.000  -6.659   0.000
 -0.000   0.000  -6.548  -0.001   0.006  -0.000   0.000  -6.653
  0.000   0.000  -0.001  -6.564  -0.000   0.000   0.000  -0.001
 -0.000  -0.000   0.006  -0.000  -6.555  -0.000  -0.000   0.006
  0.000  -0.001   0.001  -0.000  -0.000   0.000  -0.001   0.001
  0.000  -0.001   0.001  -0.000  -0.001   0.000  -0.001   0.001
  0.000  -0.001   0.001  -0.000   0.002   0.000  -0.001   0.001
 -0.000  -0.002  -0.002   0.000  -0.000  -0.000  -0.002  -0.002
 -0.002  -0.000  -0.000  -0.001   0.000  -0.002  -0.000  -0.000
  0.000  -0.002   0.001  -0.000   0.002   0.000  -0.002   0.001
 -0.000  -0.002  -0.002   0.000  -0.000  -0.000  -0.002  -0.002
 -0.002  -0.000  -0.000  -0.002   0.000  -0.002  -0.000  -0.000
 total augmentation occupancy for first ion, spin component:           1
  2.207  -0.010  -0.050  -0.002  -0.060  -0.226   0.012   0.050   0.006   0.053  -0.054   0.010   0.001   0.000  -0.000  -0.000
 -0.010   2.272  -0.018   0.009   0.056   0.012  -0.303   0.020  -0.011  -0.057   0.079  -0.018   0.012   0.014   0.000  -0.001
 -0.050  -0.018   4.349  -0.084   0.350   0.050   0.020  -2.168   0.077  -0.334  -0.221   0.028   0.024  -0.023  -0.005  -0.001
 -0.002   0.009  -0.084   2.209  -0.010   0.006  -0.011   0.077  -0.231   0.014   0.057  -0.010  -0.000  -0.004  -0.001   0.000
 -0.060   0.056   0.350  -0.010   3.888   0.053  -0.057  -0.334   0.014  -1.724   0.313  -0.037   0.026  -0.007   0.003  -0.000
 -0.226   0.012   0.050   0.006   0.053   0.226  -0.014  -0.050  -0.010  -0.046   0.049  -0.011  -0.001  -0.000   0.002   0.000
  0.012  -0.303   0.020  -0.011  -0.057  -0.014   0.315  -0.022   0.012   0.058  -0.068   0.017  -0.010  -0.011  -0.000   0.001
  0.050   0.020  -2.168   0.077  -0.334  -0.050  -0.022   1.992  -0.071   0.319   0.200  -0.036  -0.022   0.021   0.005   0.001
  0.006  -0.011   0.077  -0.231   0.014  -0.010   0.012  -0.071   0.234  -0.018  -0.051   0.011   0.000   0.003   0.002  -0.000
  0.053  -0.057  -0.334   0.014  -1.724  -0.046   0.058   0.319  -0.018   1.565  -0.285   0.050  -0.024   0.006  -0.003   0.001
 -0.054   0.079  -0.221   0.057   0.313   0.049  -0.068   0.200  -0.051  -0.285   1.417  -0.302   0.011   0.006  -0.001  -0.001
  0.010  -0.018   0.028  -0.010  -0.037  -0.011   0.017  -0.036   0.011   0.050  -0.302   0.069  -0.002  -0.001   0.000   0.000
  0.001   0.012   0.024  -0.000   0.026  -0.001  -0.010  -0.022   0.000  -0.024   0.011  -0.002   0.098  -0.004   0.003  -0.007
  0.000   0.014  -0.023  -0.004  -0.007  -0.000  -0.011   0.021   0.003   0.006   0.006  -0.001  -0.004   0.101  -0.003   0.000
 -0.000   0.000  -0.005  -0.001   0.003   0.002  -0.000   0.005   0.002  -0.003  -0.001   0.000   0.003  -0.003   0.061  -0.000
 -0.000  -0.001  -0.001   0.000  -0.000   0.000   0.001   0.001  -0.000   0.001  -0.001   0.000  -0.007   0.000  -0.000   0.000
 -0.000  -0.002   0.001   0.000   0.000   0.000   0.001  -0.001  -0.000  -0.000  -0.001   0.000   0.000  -0.007   0.000  -0.000
 -0.001  -0.000   0.000  -0.001  -0.000  -0.000  -0.000  -0.000  -0.000   0.000   0.000  -0.000  -0.000   0.000  -0.004   0.000


------------------------ aborting loop because EDIFF is reached ----------------------------------------


 


 total charge     
 
# of ion       s       p       d       tot
------------------------------------------
    1        0.238   0.147   9.323   9.708
    2        0.241   0.151   9.320   9.712
    3        0.254   0.159   9.312   9.725
    4        0.241   0.151   9.320   9.712
    5        0.252   0.157   9.313   9.722
    6        0.238   0.147   9.323   9.708
    7        0.241   0.151   9.320   9.712
    8        0.241   0.151   9.320   9.712
    9        1.834   1.401   0.138   3.372
   10        1.835   1.397   0.139   3.371
   11        1.835   1.397   0.139   3.371
   12        1.834   1.401   0.138   3.372
   13        1.833   1.400   0.135   3.368
   14        1.834   1.400   0.138   3.372
   15        1.834   1.400   0.138   3.372
   16        1.833   1.400   0.135   3.368
   17        1.516   2.743   0.015   4.274
   18        1.514   2.743   0.015   4.272
   19        1.513   2.747   0.016   4.276
   20        1.517   2.745   0.013   4.275
   21        1.517   2.745   0.013   4.275
   22        1.514   2.743   0.015   4.272
   23        1.513   2.747   0.016   4.276
   24        1.516   2.743   0.015   4.274
   25        1.518   2.742   0.012   4.273
   26        1.518   2.742   0.012   4.272
   27        1.514   2.742   0.017   4.273
   28        1.518   2.742   0.011   4.271
   29        1.518   2.743   0.012   4.273
   30        1.514   2.742   0.017   4.273
   31        1.518   2.742   0.012   4.272
   32        1.518   2.742   0.011   4.271
   33        1.518   2.742   0.012   4.272
   34        1.518   2.742   0.011   4.271
   35        1.518   2.742   0.012   4.273
   36        1.514   2.742   0.017   4.273
   37        1.514   2.742   0.017   4.273
   38        1.518   2.742   0.011   4.271
   39        1.518   2.742   0.012   4.273
   40        1.518   2.742   0.012   4.272
   41        1.513   2.747   0.016   4.276
   42        1.515   2.744   0.015   4.274
   43        1.517   2.746   0.012   4.275
   44        1.514   2.743   0.015   4.272
   45        1.513   2.747   0.016   4.276
   46        1.517   2.746   0.012   4.275
   47        1.515   2.744   0.015   4.274
   48        1.514   2.743   0.015   4.272
--------------------------------------------------
tot         65.133 100.203  76.089 241.426
 


--------------------------------------------------------------------------------------------------------



  FREE ENERGIE OF THE ION-ELECTRON SYSTEM (eV)
  ---------------------------------------------------
  free  energy   TOTEN  =      -119.96440913 eV

  energy  without entropy=     -119.96440913  energy(sigma->0) =     -119.96440913
 


--------------------------------------------------------------------------------------------------------




--------------------------------------------------------------------------------------------------------


 writing wavefunctions
     LOOP+:  cpu time  121.4753: real time  121.6781
    4ORBIT:  cpu time    0.0000: real time    0.0000
 


 total charge     
 
# of ion       s       p       d       tot
------------------------------------------
    1        0.238   0.147   9.323   9.708
    2        0.241   0.151   9.320   9.712
    3        0.254   0.159   9.312   9.725
    4        0.241   0.151   9.320   9.712
    5        0.252   0.157   9.313   9.722
    6        0.238   0.147   9.323   9.708
    7        0.241   0.151   9.320   9.712
    8        0.241   0.151   9.320   9.712
    9        1.834   1.401   0.138   3.372
   10        1.835   1.397   0.139   3.371
   11        1.835   1.397   0.139   3.371
   12        1.834   1.401   0.138   3.372
   13        1.833   1.400   0.135   3.368
   14        1.834   1.400   0.138   3.372
   15        1.834   1.400   0.138   3.372
   16        1.833   1.400   0.135   3.368
   17        1.516   2.743   0.015   4.274
   18        1.514   2.743   0.015   4.272
   19        1.513   2.747   0.016   4.276
   20        1.517   2.745   0.013   4.275
   21        1.517   2.745   0.013   4.275
   22        1.514   2.743   0.015   4.272
   23        1.513   2.747   0.016   4.276
   24        1.516   2.743   0.015   4.274
   25        1.518   2.742   0.012   4.273
   26        1.518   2.742   0.012   4.272
   27        1.514   2.742   0.017   4.273
   28        1.518   2.742   0.011   4.271
   29        1.518   2.743   0.012   4.273
   30        1.514   2.742   0.017   4.273
   31        1.518   2.742   0.012   4.272
   32        1.518   2.742   0.011   4.271
   33        1.518   2.742   0.012   4.272
   34        1.518   2.742   0.011   4.271
   35        1.518   2.742   0.012   4.273
   36        1.514   2.742   0.017   4.273
   37        1.514   2.742   0.017   4.273
   38        1.518   2.742   0.011   4.271
   39        1.518   2.742   0.012   4.273
   40        1.518   2.742   0.012   4.272
   41        1.513   2.747   0.016   4.276
   42        1.515   2.744   0.015   4.274
   43        1.517   2.746   0.012   4.275
   44        1.514   2.743   0.015   4.272
   45        1.513   2.747   0.016   4.276
   46        1.517   2.746   0.012   4.275
   47        1.515   2.744   0.015   4.274
   48        1.514   2.743   0.015   4.272
--------------------------------------------------
tot         65.133 100.203  76.089 241.426
 
 BZINTS: Fermi energy:    2.055363;  352.000000 electrons
         Band energy:-0.758164E+03;  BLOECHL correction:    0.000000

 total amount of memory used by VASP MPI-rank0  2782079. kBytes
=======================================================================

   base      :      30000. kBytes
   nonl-proj :     303764. kBytes
   fftplans  :      34720. kBytes
   grid      :      70000. kBytes
   one-center:        746. kBytes
   wavefun   :    2342849. kBytes
 
  
  
 General timing and accounting informations for this job:
 ========================================================
  
                  Total CPU time used (sec):      161.485
                            User time (sec):      155.999
                          System time (sec):        5.486
                         Elapsed time (sec):      162.528
  
                   Maximum memory used (kb):     4341748.
                   Average memory used (kb):           0.
  
                          Minor page faults:       425257
                          Major page faults:            0
                 Voluntary context switches:         2549
