 vasp.6.1.0 28Jan20 (build Jan 13 2021 21:44:47) complex                        
  
 executed on             LinuxIFC date 2021.09.12  19:26:46
 running on    9 total cores
 distrk:  each k-point on    1 cores,    9 groups
 distr:  one band on NCORE=   1 cores,    1 groups


--------------------------------------------------------------------------------------------------------


 INCAR:
 POTCAR:    PAW_PBE Ag 02Apr2005                  
 POTCAR:    PAW_PBE Bi 08Apr2002                  
 POTCAR:    PAW_PBE I 08Apr2002                   
 -----------------------------------------------------------------------------
|                                                                             |
|           W    W    AA    RRRRR   N    N  II  N    N   GGGG   !!!           |
|           W    W   A  A   R    R  NN   N  II  NN   N  G    G  !!!           |
|           W    W  A    A  R    R  N N  N  II  N N  N  G       !!!           |
|           W WW W  AAAAAA  RRRRR   N  N N  II  N  N N  G  GGG   !            |
|           WW  WW  A    A  R   R   N   NN  II  N   NN  G    G                |
|           W    W  A    A  R    R  N    N  II  N    N   GGGG   !!!           |
|                                                                             |
|     For optimal performance we recommend to set                             |
|       NCORE = 4 - approx SQRT(number of cores).                             |
|     NCORE specifies how many cores store one orbital (NPAR=cpu/NCORE).      |
|     This setting can greatly improve the performance of VASP for DFT.       |
|     The default, NCORE=1 might be grossly inefficient on modern             |
|     multi-core architectures or massively parallel machines. Do your        |
|     own testing!!!!                                                         |
|     Unfortunately you need to use the default for GW and RPA                |
|     calculations (for HF NCORE is supported but not extensively tested      |
|     yet).                                                                   |
|                                                                             |
 -----------------------------------------------------------------------------

 POTCAR:    PAW_PBE Ag 02Apr2005                  
   VRHFIN =Ag : s1 d10                                                                              
   LEXCH  = PE                                                                                      
   EATOM  =  1037.2675 eV,   76.2370 Ry                                                             
                                                                                                    
   TITEL  = PAW_PBE Ag 02Apr2005                                                                    
   LULTRA =        F    use ultrasoft PP ?                                                          
   IUNSCR =        1    unscreen: 0-lin 1-nonlin 2-no                                               
   RPACOR =    2.000    partial core radius                                                         
   POMASS =  107.868; ZVAL   =   11.000    mass and valenz                                          
   RCORE  =    2.500    outmost cutoff radius                                                       
   RWIGS  =    2.840; RWIGS  =    1.503    wigner-seitz radius (au A)                               
   ENMAX  =  249.844; ENMIN  =  187.383 eV                                                          
   ICORE  =        3    local potential                                                             
   LCOR   =        T    correct aug charges                                                         
   LPAW   =        T    paw PP                                                                      
   EAUG   =  412.496                                                                                
   DEXC   =    0.000                                                                                
   RMAX   =    2.560    core radius for proj-oper                                                   
   RAUG   =    1.300    factor for augmentation sphere                                              
   RDEP   =    2.576    radius for radial grids                                                     
   RDEPT  =    2.072    core radius for aug-charge                                                  
                                                                                                    
   Atomic configuration                                                                             
   12 entries                                                                                       
     n  l   j            E        occ.                                                              
     1  0  0.50    -25324.9161   2.0000                                                             
     2  0  0.50     -3728.5341   2.0000                                                             
     2  1  1.50     -3344.0404   6.0000                                                             
     3  0  0.50      -683.5581   2.0000                                                             
     3  1  1.50      -557.3225   6.0000                                                             
     3  2  2.50      -358.3853  10.0000                                                             
     4  0  0.50       -95.0341   2.0000                                                             
     4  1  1.50       -58.5511   6.0000                                                             
     4  2  2.50        -7.4440  10.0000                                                             
     5  0  0.50        -4.4045   1.0000                                                             
     5  1  0.50        -1.3606   0.0000                                                             
     4  3  2.50        -1.3606   0.0000                                                             
   Description                                                                                      
     l       E           TYP  RCUT    TYP  RCUT                                                     
     2     -7.4439781     23  2.400                                                                 
     2     -8.8045607     23  2.400                                                                 
     0     -4.4044681     23  2.400                                                                 
     0      1.9520038     23  2.400                                                                 
     1     -1.3605826     23  2.500                                                                 
     1     27.2116520     23  2.500                                                                 
     3     -4.0817478     23  2.400                                                                 
  local pseudopotential read in
  partial core-charges read in
  partial kinetic energy density read in
  atomic valenz-charges read in
  non local Contribution for L=           2  read in
    real space projection operators read in
  non local Contribution for L=           2  read in
    real space projection operators read in
  non local Contribution for L=           0  read in
    real space projection operators read in
  non local Contribution for L=           0  read in
    real space projection operators read in
  non local Contribution for L=           1  read in
    real space projection operators read in
  non local Contribution for L=           1  read in
    real space projection operators read in
    PAW grid and wavefunctions read in
 
   number of l-projection  operators is LMAX  =           6
   number of lm-projection operators is LMMAX =          18
 
 POTCAR:    PAW_PBE Bi 08Apr2002                  
   VRHFIN =Bi:                                                                                      
   LEXCH  = PE                                                                                      
   EATOM  =   150.8133 eV,   11.0845 Ry                                                             
                                                                                                    
   TITEL  = PAW_PBE Bi 08Apr2002                                                                    
   LULTRA =        F    use ultrasoft PP ?                                                          
   IUNSCR =        1    unscreen: 0-lin 1-nonlin 2-no                                               
   RPACOR =    2.200    partial core radius                                                         
   POMASS =  208.980; ZVAL   =    5.000    mass and valenz                                          
   RCORE  =    3.000    outmost cutoff radius                                                       
   RWIGS  =    3.090; RWIGS  =    1.635    wigner-seitz radius (au A)                               
   ENMAX  =  105.037; ENMIN  =   78.777 eV                                                          
   ICORE  =        3    local potential                                                             
   LCOR   =        T    correct aug charges                                                         
   LPAW   =        T    paw PP                                                                      
   EAUG   =  265.427                                                                                
   DEXC   =    0.000                                                                                
   RMAX   =    3.067    core radius for proj-oper                                                   
   RAUG   =    1.300    factor for augmentation sphere                                              
   RDEP   =    3.012    radius for radial grids                                                     
   RDEPT  =    2.604    core radius for aug-charge                                                  
                                                                                                    
   Atomic configuration                                                                             
   17 entries                                                                                       
     n  l   j            E        occ.                                                              
     1  0  0.50    -90639.6582   2.0000                                                             
     2  0  0.50    -16282.4667   2.0000                                                             
     2  1  1.50    -13922.8287   6.0000                                                             
     3  0  0.50     -3930.4763   2.0000                                                             
     3  1  1.50     -3256.7013   6.0000                                                             
     3  2  2.50     -2581.6169  10.0000                                                             
     4  0  0.50      -902.2614   2.0000                                                             
     4  1  1.50      -681.5915   6.0000                                                             
     4  2  2.50      -429.8249  10.0000                                                             
     4  3  3.50      -152.6004  14.0000                                                             
     5  0  0.50      -157.7156   2.0000                                                             
     5  1  1.50       -95.8054   6.0000                                                             
     5  2  2.50       -27.0806  10.0000                                                             
     6  0  0.50       -14.4732   2.0000                                                             
     6  1  1.50        -4.5702   3.0000                                                             
     6  2  2.50        -2.7212   0.0000                                                             
     5  3  2.50        -2.7212   0.0000                                                             
   Description                                                                                      
     l       E           TYP  RCUT    TYP  RCUT                                                     
     0    -14.4732299     23  3.000                                                                 
     0    -12.2452434     23  3.000                                                                 
     1     -4.5701666     23  3.000                                                                 
     1    -13.6058260     23  3.000                                                                 
     2     -2.7211652     23  3.000                                                                 
     3     -1.3605826      7  3.000                                                                 
  local pseudopotential read in
  partial core-charges read in
  partial kinetic energy density read in
  kinetic energy density of atom read in
  atomic valenz-charges read in
  non local Contribution for L=           0  read in
    real space projection operators read in
  non local Contribution for L=           0  read in
    real space projection operators read in
  non local Contribution for L=           1  read in
    real space projection operators read in
  non local Contribution for L=           1  read in
    real space projection operators read in
  non local Contribution for L=           2  read in
    real space projection operators read in
    PAW grid and wavefunctions read in
 
   number of l-projection  operators is LMAX  =           5
   number of lm-projection operators is LMMAX =          13
 
 POTCAR:    PAW_PBE I 08Apr2002                   
   VRHFIN =I : s2p5                                                                                 
   LEXCH  = PE                                                                                      
   EATOM  =   315.8678 eV,   23.2156 Ry                                                             
                                                                                                    
   TITEL  = PAW_PBE I 08Apr2002                                                                     
   LULTRA =        F    use ultrasoft PP ?                                                          
   IUNSCR =        1    unscreen: 0-lin 1-nonlin 2-no                                               
   RPACOR =    2.200    partial core radius                                                         
   POMASS =  126.904; ZVAL   =    7.000    mass and valenz                                          
   RCORE  =    2.300    outmost cutoff radius                                                       
   RWIGS  =    2.810; RWIGS  =    1.487    wigner-seitz radius (au A)                               
   ENMAX  =  175.647; ENMIN  =  131.735 eV                                                          
   ICORE  =        3    local potential                                                             
   LCOR   =        T    correct aug charges                                                         
   LPAW   =        T    paw PP                                                                      
   EAUG   =  370.139                                                                                
   DEXC   =    0.000                                                                                
   RMAX   =    2.359    core radius for proj-oper                                                   
   RAUG   =    1.300    factor for augmentation sphere                                              
   RDEP   =    2.392    radius for radial grids                                                     
   RDEPT  =    2.170    core radius for aug-charge                                                  
                                                                                                    
   Atomic configuration                                                                             
   13 entries                                                                                       
     n  l   j            E        occ.                                                              
     1  0  0.50    -32976.3739   2.0000                                                             
     2  0  0.50     -5094.5933   2.0000                                                             
     2  1  1.50     -4572.0131   6.0000                                                             
     3  0  0.50     -1028.2813   2.0000                                                             
     3  1  1.50      -859.0250   6.0000                                                             
     3  2  2.50      -605.7620  10.0000                                                             
     4  0  0.50      -180.5540   2.0000                                                             
     4  1  1.50      -127.5306   6.0000                                                             
     4  2  2.50       -50.2720  10.0000                                                             
     5  0  0.50       -17.4058   2.0000                                                             
     5  1  0.50        -7.0851   5.0000                                                             
     5  2  1.50        -7.0750   0.0000                                                             
     4  3  2.50        -7.0750   0.0000                                                             
   Description                                                                                      
     l       E           TYP  RCUT    TYP  RCUT                                                     
     0    -17.4058016     23  2.300                                                                 
     0    -18.7663842     23  2.300                                                                 
     1     -7.0850686     23  2.300                                                                 
     1     -4.2150896     23  2.300                                                                 
     2     -7.0750295     23  2.300                                                                 
     3     -1.3605826     23  2.300                                                                 
  local pseudopotential read in
  partial core-charges read in
  partial kinetic energy density read in
  atomic valenz-charges read in
  non local Contribution for L=           0  read in
    real space projection operators read in
  non local Contribution for L=           0  read in
    real space projection operators read in
  non local Contribution for L=           1  read in
    real space projection operators read in
  non local Contribution for L=           1  read in
    real space projection operators read in
  non local Contribution for L=           2  read in
    real space projection operators read in
    PAW grid and wavefunctions read in
 
   number of l-projection  operators is LMAX  =           5
   number of lm-projection operators is LMMAX =          13
 
 -----------------------------------------------------------------------------
|                                                                             |
|               ----> ADVICE to this user running VASP <----                  |
|                                                                             |
|     You have a (more or less) 'large supercell' and for larger cells it     |
|     might be more efficient to use real-space projection operators.         |
|     Therefore, try LREAL= Auto in the INCAR file.                           |
|     Mind: For very accurate calculation, you might also keep the            |
|     reciprocal projection scheme (i.e. LREAL=.FALSE.).                      |
|                                                                             |
 -----------------------------------------------------------------------------

  PAW_PBE Ag 02Apr2005                  :
 energy of atom  1       EATOM=-1037.2675
 kinetic energy error for atom=    0.0686 (will be added to EATOM!!)
  PAW_PBE Bi 08Apr2002                  :
 energy of atom  2       EATOM= -150.8133
 kinetic energy error for atom=    0.0004 (will be added to EATOM!!)
  PAW_PBE I 08Apr2002                   :
 energy of atom  3       EATOM= -315.8678
 kinetic energy error for atom=    0.0044 (will be added to EATOM!!)
 
 
 POSCAR: Generation Seed Number
  positions in direct lattice
  velocities in cartesian coordinates
 exchange correlation table for  LEXCH =        8
   RHO(1)=    0.500       N(1)  =     2000
   RHO(2)=  100.500       N(2)  =     4000
 


--------------------------------------------------------------------------------------------------------


 ion  position               nearest neighbor table
   1  0.247  0.248  0.998-  42 3.02  25 3.03  41 3.06  29 3.09  17 3.24  19 3.30
   2  0.760  0.725  0.994-  27 2.94  23 2.98  48 3.07  31 3.14  47 3.16  21 3.58
   3  0.006  0.275  0.241-  25 2.94  35 2.99  41 3.07  26 3.14  45 3.16  33 3.58
   4  0.002  0.747  0.754-  44 3.02  27 3.03  48 3.05  28 3.09  36 3.23  34 3.31
   5  0.475  1.000  0.525-  30 2.96  32 2.96  38 2.97  18 2.97
   6  0.776  0.500  0.224-  45 2.95  47 2.95  23 2.96  35 2.96
   7  0.488  0.225  0.755-  42 2.94  38 2.98  29 3.07  30 3.13  46 3.20  40 3.59
   8  0.245  0.775  0.513-  44 2.94  18 2.98  28 3.06  32 3.12  43 3.21  20 3.58
   9  1.000  0.000  0.000-  34 3.11  27 3.11  25 3.11  17 3.12  21 3.14  33 3.14
  10  0.501  0.496  0.999-  29 3.03  23 3.06  40 3.13  39 3.14  19 3.20  31 3.20
  11  0.002  0.504  0.499-  28 3.03  35 3.06  20 3.12  24 3.14  26 3.20  36 3.20
  12  0.249  0.003  0.251-  41 3.04  18 3.06  33 3.13  37 3.14  43 3.19  17 3.20
  13  0.750  0.997  0.751-  48 3.04  38 3.06  21 3.13  22 3.14  46 3.19  34 3.20
  14  0.502  0.750  0.252-  47 3.07  32 3.07  39 3.14  37 3.14  43 3.18  31 3.18
  15  0.250  0.500  0.751-  19 3.11  42 3.11  44 3.11  36 3.12  40 3.14  20 3.14
  16  0.748  0.250  0.498-  45 3.07  30 3.07  24 3.14  22 3.14  46 3.18  26 3.19
  17  0.244  0.993  1.000-   9 3.12  12 3.20   1 3.24
  18  0.244  0.008  0.491-   5 2.97   8 2.98  12 3.06
  19  0.250  0.507  0.995-  15 3.11  10 3.20   1 3.30
  20  0.247  0.494  0.504-  11 3.12  15 3.14   8 3.58
  21  0.753  0.007  0.997-  13 3.13   9 3.14   2 3.58
  22  0.760  0.004  0.505-  16 3.14  13 3.14
  23  0.741  0.491  0.994-   6 2.96   2 2.98  10 3.06
  24  0.755  0.496  0.511-  16 3.14  11 3.14
  25  0.009  0.244  0.012-   3 2.94   1 3.03   9 3.11
  26  0.998  0.253  0.486-   3 3.14  16 3.19  11 3.20
  27  0.988  0.756  0.991-   2 2.94   4 3.03   9 3.11
  28  0.007  0.742  0.511-  11 3.03   8 3.06   4 3.09
  29  0.490  0.258  0.994-  10 3.03   7 3.07   1 3.09
  30  0.508  0.230  0.510-   5 2.96  16 3.07   7 3.13
  31  0.514  0.747  0.002-   2 3.14  14 3.18  10 3.20
  32  0.489  0.770  0.492-   5 2.96  14 3.07   8 3.12
  33  0.003  0.993  0.247-  12 3.13   9 3.14   3 3.58
  34  0.000  0.007  0.756-   9 3.11  13 3.20   4 3.31
  35  0.006  0.509  0.259-   6 2.96   3 2.99  11 3.06
  36  0.005  0.493  0.751-  15 3.12  11 3.20   4 3.23
  37  0.495  0.996  0.240-  14 3.14  12 3.14
  38  0.509  0.992  0.756-   5 2.97   7 2.98  13 3.06
  39  0.489  0.504  0.245-  14 3.14  10 3.14
  40  0.496  0.507  0.753-  10 3.13  15 3.14   7 3.59
  41  0.245  0.242  0.239-  12 3.04   1 3.06   3 3.07
  42  0.259  0.256  0.761-   7 2.94   1 3.02  15 3.11
  43  0.252  0.753  0.261-  14 3.18  12 3.19   8 3.21
  44  0.239  0.744  0.742-   8 2.94   4 3.02  15 3.11
  45  0.758  0.271  0.258-   6 2.95  16 3.07   3 3.16
  46  0.738  0.247  0.748-  16 3.18  13 3.19   7 3.20
  47  0.742  0.729  0.242-   6 2.95  14 3.07   2 3.16
  48  0.762  0.758  0.755-  13 3.04   4 3.05   2 3.07
 
 -----------------------------------------------------------------------------
|                                                                             |
|           W    W    AA    RRRRR   N    N  II  N    N   GGGG   !!!           |
|           W    W   A  A   R    R  NN   N  II  NN   N  G    G  !!!           |
|           W    W  A    A  R    R  N N  N  II  N N  N  G       !!!           |
|           W WW W  AAAAAA  RRRRR   N  N N  II  N  N N  G  GGG   !            |
|           WW  WW  A    A  R   R   N   NN  II  N   NN  G    G                |
|           W    W  A    A  R    R  N    N  II  N    N   GGGG   !!!           |
|                                                                             |
|     The determination of the symmetry of your systems shows a strong        |
|     dependence on the tolerance parameter SYMPREC. This is often the        |
|     result of "noise" in the structural parameters (lattice vectors         |
|     and/or ionic positions). Set NWRITE=3 for more details.                 |
|                                                                             |
 -----------------------------------------------------------------------------

  Warning from LATTYP: Got some problem with cell dimensions!
  Tried to take original basis but could not verify dimensions!
  LATTYP: Found a triclinic cell.
 ALAT       =    12.7269538515
 B/A-ratio  =     1.4140255591
 C/A-ratio  =     1.0000834866
 COS(alpha) =     0.0000109882
 COS(beta)  =     0.0001664520
 COS(gamma) =     0.7070734360
  
  Lattice vectors:
  
 A1 = ( -12.7269537618,  -0.0011955402,  -0.0009234471)
 A2 = ( -12.7258572833,  12.7246665901,   0.0000803339)
 A3 = (  -0.0011949933,  -0.0009169518, -12.7280162929)


Analysis of symmetry for initial positions (statically):
=====================================================================
 Subroutine PRICEL returns:
 Original cell was already a primitive cell.
 

 Routine SETGRP: Setting up the symmetry group for a 
 triclinic supercell.


 Subroutine GETGRP returns: Found  1 space group operations
 (whereof  1 operations were pure point group operations)
 out of a pool of  2 trial point group operations.


The static configuration has the point symmetry C_1 .


Analysis of symmetry for dynamics (positions and initial velocities):
=====================================================================
 Subroutine PRICEL returns:
 Original cell was already a primitive cell.
 

 Routine SETGRP: Setting up the symmetry group for a 
 triclinic supercell.


 Subroutine GETGRP returns: Found  1 space group operations
 (whereof  1 operations were pure point group operations)
 out of a pool of  2 trial point group operations.


The dynamic configuration has the point symmetry C_1 .


 Subroutine INISYM returns: Found  1 space group operations
 (whereof  1 operations are pure point group operations),
 and found     1 'primitive' translations


----------------------------------------------------------------------------------------

                                     Primitive cell                                     

  volume of cell :    2061.4480

  direct lattice vectors                    reciprocal lattice vectors
    12.726953762  0.001195540  0.000923447     0.078573399 -0.000006769 -0.000007377
     0.001096479 12.725862130  0.001003781    -0.000007381  0.078580139 -0.000005660
     0.001194993  0.000916952 12.728016293    -0.000005700 -0.000006197  0.078566839

  length of vectors
    12.726953851 12.725862217 12.728016382     0.078573400  0.078580139  0.078566840

  position of ions in fractional coordinates (direct lattice)
     0.247105718  0.247686755  0.998111679
     0.759507648  0.725114769  0.994409237
     0.006069266  0.274793681  0.240865810
     0.001729502  0.747432232  0.753725185
     0.475115324  0.999941291  0.525034697
     0.775889006  0.499934598  0.224315124
     0.488197820  0.224952410  0.755156768
     0.245097180  0.774835187  0.512779447
     0.999520845  0.000089036  0.000432395
     0.501155588  0.495970962  0.998539899
     0.001864131  0.503946511  0.498992544
     0.248637349  0.003186303  0.250953740
     0.749582974  0.996695131  0.751479795
     0.501883331  0.749568518  0.252130624
     0.249861120  0.500046790  0.750821681
     0.748109662  0.250372264  0.498219290
     0.244404030  0.993230251  0.999665483
     0.244368887  0.008044246  0.491111377
     0.250004258  0.506846118  0.995074636
     0.247027583  0.493562239  0.504086400
     0.753298859  0.006736426  0.996969883
     0.760401299  0.004012726  0.504978930
     0.741407690  0.491336634  0.994190793
     0.755182872  0.496364929  0.511252461
     0.009215276  0.244311662  0.011882539
     0.998090135  0.252801712  0.486405233
     0.988417904  0.755836673  0.991321158
     0.006834233  0.741834746  0.510686546
     0.489641800  0.258085248  0.993706431
     0.507800056  0.229532388  0.510350682
     0.514080606  0.747187538  0.002252895
     0.489379865  0.770230777  0.492489409
     0.003303077  0.993486036  0.246941509
     0.000466261  0.007323762  0.755968688
     0.006060995  0.508657854  0.258957697
     0.005129568  0.493350092  0.750504784
     0.495322771  0.995855934  0.240000200
     0.509210512  0.991650086  0.755662280
     0.488879940  0.503504155  0.245002517
     0.496228450  0.506662297  0.753204423
     0.245157067  0.241647615  0.238596944
     0.259243406  0.255789499  0.761350212
     0.252092627  0.752963799  0.261287311
     0.238779972  0.744304618  0.741657163
     0.758153335  0.271247190  0.258144877
     0.738227434  0.247027868  0.748095681
     0.742044727  0.728598667  0.242355043
     0.761965741  0.758259667  0.755144604

  ion indices of the primitive-cell ions
   primitive index   ion index
                 1           1
                 2           2
                 3           3
                 4           4
                 5           5
                 6           6
                 7           7
                 8           8
                 9           9
                10          10
                11          11
                12          12
                13          13
                14          14
                15          15
                16          16
                17          17
                18          18
                19          19
                20          20
                21          21
                22          22
                23          23
                24          24
                25          25
                26          26
                27          27
                28          28
                29          29
                30          30
                31          31
                32          32
                33          33
                34          34
                35          35
                36          36
                37          37
                38          38
                39          39
                40          40
                41          41
                42          42
                43          43
                44          44
                45          45
                46          46
                47          47
                48          48

----------------------------------------------------------------------------------------

 
 
 KPOINTS: agbii                                   

Automatic generation of k-mesh.
Space group operators:
 irot       det(A)        alpha          n_x          n_y          n_z        tau_x        tau_y        tau_z
    1     1.000000     0.000000     1.000000     0.000000     0.000000     0.000000     0.000000     0.000000
 TETIRR: Found    192 inequivalent tetrahedra from      384
 
 Subroutine IBZKPT returns following result:
 ===========================================
 
 Found     36 irreducible k-points:
 
 Following reciprocal coordinates:
            Coordinates               Weight
  0.000000  0.000000  0.000000      1.000000
  0.250000 -0.000000 -0.000000      2.000000
  0.500000 -0.000000  0.000000      1.000000
 -0.000000  0.250000  0.000000      2.000000
  0.250000  0.250000 -0.000000      2.000000
  0.500000  0.250000  0.000000      2.000000
 -0.250000  0.250000 -0.000000      2.000000
 -0.000000  0.500000  0.000000      1.000000
  0.250000  0.500000 -0.000000      2.000000
  0.500000  0.500000 -0.000000      1.000000
  0.000000  0.000000  0.250000      2.000000
  0.250000 -0.000000  0.250000      2.000000
  0.500000 -0.000000  0.250000      2.000000
 -0.250000  0.000000  0.250000      2.000000
 -0.000000  0.250000  0.250000      2.000000
  0.250000  0.250000  0.250000      2.000000
  0.500000  0.250000  0.250000      2.000000
 -0.250000  0.250000  0.250000      2.000000
 -0.000000  0.500000  0.250000      2.000000
  0.250000  0.500000  0.250000      2.000000
  0.500000  0.500000  0.250000      2.000000
 -0.250000  0.500000  0.250000      2.000000
 -0.000000 -0.250000  0.250000      2.000000
  0.250000 -0.250000  0.250000      2.000000
  0.500000 -0.250000  0.250000      2.000000
 -0.250000 -0.250000  0.250000      2.000000
  0.000000  0.000000  0.500000      1.000000
  0.250000 -0.000000  0.500000      2.000000
  0.500000 -0.000000  0.500000      1.000000
 -0.000000  0.250000  0.500000      2.000000
  0.250000  0.250000  0.500000      2.000000
  0.500000  0.250000  0.500000      2.000000
 -0.250000  0.250000  0.500000      2.000000
 -0.000000  0.500000  0.500000      1.000000
  0.250000  0.500000  0.500000      2.000000
  0.500000  0.500000  0.500000      1.000000
 
 Following cartesian coordinates:
            Coordinates               Weight
  0.000000  0.000000  0.000000      1.000000
  0.019643 -0.000002 -0.000002      2.000000
  0.039287 -0.000003 -0.000004      1.000000
 -0.000002  0.019645 -0.000001      2.000000
  0.019642  0.019643 -0.000003      2.000000
  0.039285  0.019642 -0.000005      2.000000
 -0.019645  0.019647  0.000000      2.000000
 -0.000004  0.039290 -0.000003      1.000000
  0.019640  0.039288 -0.000005      2.000000
  0.039283  0.039287 -0.000007      1.000000
 -0.000001 -0.000002  0.019642      2.000000
  0.019642 -0.000003  0.019640      2.000000
  0.039285 -0.000005  0.019638      2.000000
 -0.019645  0.000000  0.019644      2.000000
 -0.000003  0.019643  0.019640      2.000000
  0.019640  0.019642  0.019638      2.000000
  0.039283  0.019640  0.019637      2.000000
 -0.019647  0.019645  0.019642      2.000000
 -0.000005  0.039289  0.019639      2.000000
  0.019638  0.039287  0.019637      2.000000
  0.039282  0.039285  0.019635      2.000000
 -0.019648  0.039290  0.019641      2.000000
  0.000000 -0.019647  0.019643      2.000000
  0.019644 -0.019648  0.019641      2.000000
  0.039287 -0.019650  0.019639      2.000000
 -0.019643 -0.019645  0.019645      2.000000
 -0.000003 -0.000003  0.039283      1.000000
  0.019640 -0.000005  0.039282      2.000000
  0.039284 -0.000006  0.039280      1.000000
 -0.000005  0.019642  0.039282      2.000000
  0.019639  0.019640  0.039280      2.000000
  0.039282  0.019639  0.039278      2.000000
 -0.019648  0.019644  0.039284      2.000000
 -0.000007  0.039287  0.039281      1.000000
  0.019637  0.039285  0.039279      2.000000
  0.039280  0.039284  0.039277      1.000000
 


--------------------------------------------------------------------------------------------------------




 Dimension of arrays:
   k-points           NKPTS =     36   k-points in BZ     NKDIM =     36   number of bands    NBANDS=    211
   number of dos      NEDOS =   3000   number of ions     NIONS =     48
   non local maximal  LDIM  =      6   non local SUM 2l+1 LMDIM =     18
   total plane-waves  NPLWV = 125000
   max r-space proj   IRMAX =      1   max aug-charges    IRDMAX=   5975
   dimension x,y,z NGX =    50 NGY =   50 NGZ =   50
   dimension x,y,z NGXF=   100 NGYF=  100 NGZF=  100
   support grid    NGXF=   100 NGYF=  100 NGZF=  100
   ions per type =               8   8  32
   NGX,Y,Z   is equivalent  to a cutoff of   6.53,  6.53,  6.53 a.u.
   NGXF,Y,Z  is equivalent  to a cutoff of  13.06, 13.06, 13.06 a.u.

 SYSTEM =  unknown system                          
 POSCAR =  Generation Seed Number                  

 Startparameter for this run:
   NWRITE =      2    write-flag & timer
   PREC   = normal    normal or accurate (medium, high low for compatibility)
   ISTART =      1    job   : 0-new  1-cont  2-samecut
   ICHARG =      1    charge: 1-file 2-atom 10-const
   ISPIN  =      1    spin polarized calculation?
   LNONCOLLINEAR =      F non collinear calculations
   LSORBIT =      F    spin-orbit coupling
   INIWAV =      1    electr: 0-lowe 1-rand  2-diag
   LASPH  =      F    aspherical Exc in radial PAW
   METAGGA=      F    non-selfconsistent MetaGGA calc.

 Electronic Relaxation 1
   ENCUT  =  250.0 eV  18.37 Ry    4.29 a.u.  16.41 16.41 16.41*2*pi/ulx,y,z
   ENINI  =  250.0     initial cutoff
   ENAUG  =  412.5 eV  augmentation charge cutoff
   NELM   =     60;   NELMIN=  2; NELMDL=  0     # of ELM steps 
   EDIFF  = 0.1E-05   stopping-criterion for ELM
   LREAL  =      F    real-space projection
   NLSPLINE    = F    spline interpolate recip. space projectors
   LCOMPAT=      F    compatible to vasp.4.4
   GGA_COMPAT  = T    GGA compatible to vasp.4.4-vasp.4.6
   LMAXPAW     = -100 max onsite density
   LMAXMIX     =    4 max onsite mixed and CHGCAR
   VOSKOWN=      0    Vosko Wilk Nusair interpolation
   ROPT   =    0.00000   0.00000   0.00000
 Ionic relaxation
   EDIFFG = -.1E-01   stopping-criterion for IOM
   NSW    =      0    number of steps for IOM
   NBLOCK =      1;   KBLOCK =      1    inner block; outer block 
   IBRION =     -1    ionic relax: 0-MD 1-quasi-New 2-CG
   NFREE  =      0    steps in history (QN), initial steepest desc. (CG)
   ISIF   =     -1    stress and relaxation
   IWAVPR =     10    prediction:  0-non 1-charg 2-wave 3-comb
   ISYM   =      2    0-nonsym 1-usesym 2-fastsym
   LCORR  =      T    Harris-Foulkes like correction to forces

   POTIM  = 0.5000    time-step for ionic-motion
   TEIN   =    0.0    initial temperature
   TEBEG  =    0.0;   TEEND  =   0.0 temperature during run
   SMASS  =  -3.00    Nose mass-parameter (am)
   estimated Nose-frequenzy (Omega)   =  0.10E-29 period in steps = 0.13E+47 mass=  -0.370E-26a.u.
   SCALEE = 1.0000    scale energy and forces
   NPACO  =    256;   APACO  = 16.0  distance and # of slots for P.C.
   PSTRESS=    0.0 pullay stress

  Mass of Ions in am
   POMASS = 107.87208.98126.90
  Ionic Valenz
   ZVAL   =  11.00  5.00  7.00
  Atomic Wigner-Seitz radii
   RWIGS  =  -1.00 -1.00 -1.00
  virtual crystal weights 
   VCA    =   1.00  1.00  1.00
   NELECT =     352.0000    total number of electrons
   NUPDOWN=      -1.0000    fix difference up-down

 DOS related values:
   EMIN   =  10.00;   EMAX   =-10.00  energy-range for DOS
   EFERMI =   0.00
   ISMEAR =    -5;   SIGMA  =   0.20  broadening in eV -4-tet -1-fermi 0-gaus

 Electronic relaxation 2 (details)
   IALGO  =     38    algorithm
   LDIAG  =      T    sub-space diagonalisation (order eigenvalues)
   LSUBROT=      F    optimize rotation matrix (better conditioning)
   TURBO    =      0    0=normal 1=particle mesh
   IRESTART =      0    0=no restart 2=restart with 2 vectors
   NREBOOT  =      0    no. of reboots
   NMIN     =      0    reboot dimension
   EREF     =   0.00    reference energy to select bands
   IMIX   =      4    mixing-type and parameters
     AMIX     =   0.40;   BMIX     =  1.00
     AMIX_MAG =   1.60;   BMIX_MAG =  1.00
     AMIN     =   0.10
     WC   =   100.;   INIMIX=   1;  MIXPRE=   1;  MAXMIX= -45

 Intra band minimization:
   WEIMIN = 0.0000     energy-eigenvalue tresh-hold
   EBREAK =  0.12E-08  absolut break condition
   DEPER  =   0.30     relativ break condition  

   TIME   =   0.40     timestep for ELM

  volume/ion in A,a.u.               =      42.95       289.82
  Fermi-wavevector in a.u.,A,eV,Ry     =   0.908235  1.716315 11.223322  0.824891
  Thomas-Fermi vector in A             =   2.032137
 
 Write flags
   LWAVE        =      T    write WAVECAR
   LDOWNSAMPLE  =      F    k-point downsampling of WAVECAR
   LCHARG       =      T    write CHGCAR
   LVTOT        =      F    write LOCPOT, total local potential
   LVHAR        =      F    write LOCPOT, Hartree potential only
   LELF         =      F    write electronic localiz. function (ELF)
   LORBIT       =     10    0 simple, 1 ext, 2 COOP (PROOUT), +10 PAW based schemes


 Dipole corrections
   LMONO  =      F    monopole corrections only (constant potential shift)
   LDIPOL =      F    correct potential (dipole corrections)
   IDIPOL =      0    1-x, 2-y, 3-z, 4-all directions 
   EPSILON=  1.0000000 bulk dielectric constant

 Exchange correlation treatment:
   GGA     =    --    GGA type
   LEXCH   =     8    internal setting for exchange type
   VOSKOWN=      0    Vosko Wilk Nusair interpolation
   LHFCALC =     F    Hartree Fock is set to
   LHFONE  =     F    Hartree Fock one center treatment
   AEXX    =    0.0000 exact exchange contribution

 Linear response parameters
   LEPSILON=     F    determine dielectric tensor
   LRPA    =     F    only Hartree local field effects (RPA)
   LNABLA  =     F    use nabla operator in PAW spheres
   LVEL    =     F    velocity operator in full k-point grid
   LINTERFAST=   F  fast interpolation
   KINTER  =     0    interpolate to denser k-point grid
   CSHIFT  =0.1000    complex shift for real part using Kramers Kronig
   OMEGAMAX=  -1.0    maximum frequency
   DEG_THRESHOLD= 0.2000000E-02 threshold for treating states as degnerate
   RTIME   =   -0.100 relaxation time in fs
  (WPLASMAI=    0.000 imaginary part of plasma frequency in eV, 0.658/RTIME)
   DFIELD  = 0.0000000 0.0000000 0.0000000 field for delta impulse in time
 
 Orbital magnetization related:
   ORBITALMAG=     F  switch on orbital magnetization
   LCHIMAG   =     F  perturbation theory with respect to B field
   DQ        =  0.001000  dq finite difference perturbation B field
   LLRAUG    =     F  two centre corrections for induced B field



--------------------------------------------------------------------------------------------------------


 Static calculation
 charge density and potential will be updated during run
 non-spin polarized calculation
 Variant of blocked Davidson
 Davidson routine will perform the subspace rotation
 perform sub-space diagonalisation
    after iterative eigenvector-optimisation
 modified Broyden-mixing scheme, WC =      100.0
 initial mixing is a Kerker type mixing with AMIX =  0.4000 and BMIX =      1.0000
 Hartree-type preconditioning will be used
 using additional bands           35
 reciprocal scheme for non local part
 use partial core corrections
 calculate Harris-corrections to forces 
   (improved forces if not selfconsistent)
 use gradient corrections 
 use of overlap-Matrix (Vanderbilt PP)
 Fermi weights with tetrahedron method with Bloechl corrections


--------------------------------------------------------------------------------------------------------


  energy-cutoff  :      250.00
  volume of cell :     2061.45
      direct lattice vectors                 reciprocal lattice vectors
    12.726953762  0.001195540  0.000923447     0.078573399 -0.000006769 -0.000007377
     0.001096479 12.725862130  0.001003781    -0.000007381  0.078580139 -0.000005660
     0.001194993  0.000916952 12.728016293    -0.000005700 -0.000006197  0.078566839

  length of vectors
    12.726953851 12.725862217 12.728016382     0.078573400  0.078580139  0.078566840


 
 old parameters found on file WAVECAR:
  energy-cutoff  :      250.00
  volume of cell :     2061.45
      direct lattice vectors                 reciprocal lattice vectors
    12.726953762  0.001195540  0.000923447     0.078573399 -0.000006769 -0.000007377
     0.001096479 12.725862130  0.001003781    -0.000007381  0.078580139 -0.000005660
     0.001194993  0.000916952 12.728016293    -0.000005700 -0.000006197  0.078566839

  length of vectors

 
 k-points in units of 2pi/SCALE and weight: agbii                                   
   0.00000000  0.00000000  0.00000000       0.016
   0.01964335 -0.00000169 -0.00000184       0.031
   0.03928670 -0.00000338 -0.00000369       0.016
  -0.00000185  0.01964503 -0.00000142       0.031
   0.01964150  0.01964334 -0.00000326       0.031
   0.03928485  0.01964165 -0.00000510       0.031
  -0.01964520  0.01964673  0.00000043       0.031
  -0.00000369  0.03929007 -0.00000283       0.016
   0.01963966  0.03928838 -0.00000467       0.031
   0.03928301  0.03928668 -0.00000652       0.016
  -0.00000143 -0.00000155  0.01964171       0.031
   0.01964192 -0.00000324  0.01963987       0.031
   0.03928527 -0.00000493  0.01963802       0.031
  -0.01964477  0.00000014  0.01964355       0.031
  -0.00000327  0.01964349  0.01964029       0.031
   0.01964008  0.01964179  0.01963845       0.031
   0.03928343  0.01964010  0.01963661       0.031
  -0.01964662  0.01964518  0.01964214       0.031
  -0.00000512  0.03928852  0.01963888       0.031
   0.01963823  0.03928683  0.01963704       0.031
   0.03928158  0.03928514  0.01963519       0.031
  -0.01964847  0.03929021  0.01964072       0.031
   0.00000042 -0.01964658  0.01964312       0.031
   0.01964377 -0.01964828  0.01964128       0.031
   0.03928712 -0.01964997  0.01963944       0.031
  -0.01964293 -0.01964489  0.01964497       0.031
  -0.00000285 -0.00000310  0.03928342       0.016
   0.01964050 -0.00000479  0.03928158       0.031
   0.03928385 -0.00000648  0.03927973       0.016
  -0.00000470  0.01964194  0.03928200       0.031
   0.01963865  0.01964024  0.03928016       0.031
   0.03928200  0.01963855  0.03927832       0.031
  -0.01964805  0.01964363  0.03928385       0.031
  -0.00000654  0.03928697  0.03928059       0.016
   0.01963681  0.03928528  0.03927875       0.031
   0.03928016  0.03928359  0.03927690       0.016
 
 k-points in reciprocal lattice and weights: agbii                                   
   0.00000000  0.00000000  0.00000000       0.016
   0.25000000 -0.00000000 -0.00000000       0.031
   0.50000000 -0.00000000  0.00000000       0.016
  -0.00000000  0.25000000  0.00000000       0.031
   0.25000000  0.25000000 -0.00000000       0.031
   0.50000000  0.25000000  0.00000000       0.031
  -0.25000000  0.25000000 -0.00000000       0.031
  -0.00000000  0.50000000  0.00000000       0.016
   0.25000000  0.50000000 -0.00000000       0.031
   0.50000000  0.50000000 -0.00000000       0.016
   0.00000000  0.00000000  0.25000000       0.031
   0.25000000 -0.00000000  0.25000000       0.031
   0.50000000 -0.00000000  0.25000000       0.031
  -0.25000000  0.00000000  0.25000000       0.031
  -0.00000000  0.25000000  0.25000000       0.031
   0.25000000  0.25000000  0.25000000       0.031
   0.50000000  0.25000000  0.25000000       0.031
  -0.25000000  0.25000000  0.25000000       0.031
  -0.00000000  0.50000000  0.25000000       0.031
   0.25000000  0.50000000  0.25000000       0.031
   0.50000000  0.50000000  0.25000000       0.031
  -0.25000000  0.50000000  0.25000000       0.031
  -0.00000000 -0.25000000  0.25000000       0.031
   0.25000000 -0.25000000  0.25000000       0.031
   0.50000000 -0.25000000  0.25000000       0.031
  -0.25000000 -0.25000000  0.25000000       0.031
   0.00000000  0.00000000  0.50000000       0.016
   0.25000000 -0.00000000  0.50000000       0.031
   0.50000000 -0.00000000  0.50000000       0.016
  -0.00000000  0.25000000  0.50000000       0.031
   0.25000000  0.25000000  0.50000000       0.031
   0.50000000  0.25000000  0.50000000       0.031
  -0.25000000  0.25000000  0.50000000       0.031
  -0.00000000  0.50000000  0.50000000       0.016
   0.25000000  0.50000000  0.50000000       0.031
   0.50000000  0.50000000  0.50000000       0.016
 
 position of ions in fractional coordinates (direct lattice) 
   0.24710572  0.24768675  0.99811168
   0.75950765  0.72511477  0.99440924
   0.00606927  0.27479368  0.24086581
   0.00172950  0.74743223  0.75372519
   0.47511532  0.99994129  0.52503470
   0.77588901  0.49993460  0.22431512
   0.48819782  0.22495241  0.75515677
   0.24509718  0.77483519  0.51277945
   0.99952085  0.00008904  0.00043239
   0.50115559  0.49597096  0.99853990
   0.00186413  0.50394651  0.49899254
   0.24863735  0.00318630  0.25095374
   0.74958297  0.99669513  0.75147979
   0.50188333  0.74956852  0.25213062
   0.24986112  0.50004679  0.75082168
   0.74810966  0.25037226  0.49821929
   0.24440403  0.99323025  0.99966548
   0.24436889  0.00804425  0.49111138
   0.25000426  0.50684612  0.99507464
   0.24702758  0.49356224  0.50408640
   0.75329886  0.00673643  0.99696988
   0.76040130  0.00401273  0.50497893
   0.74140769  0.49133663  0.99419079
   0.75518287  0.49636493  0.51125246
   0.00921528  0.24431166  0.01188254
   0.99809013  0.25280171  0.48640523
   0.98841790  0.75583667  0.99132116
   0.00683423  0.74183475  0.51068655
   0.48964180  0.25808525  0.99370643
   0.50780006  0.22953239  0.51035068
   0.51408061  0.74718754  0.00225290
   0.48937986  0.77023078  0.49248941
   0.00330308  0.99348604  0.24694151
   0.00046626  0.00732376  0.75596869
   0.00606100  0.50865785  0.25895770
   0.00512957  0.49335009  0.75050478
   0.49532277  0.99585593  0.24000020
   0.50921051  0.99165009  0.75566228
   0.48887994  0.50350415  0.24500252
   0.49622845  0.50666230  0.75320442
   0.24515707  0.24164762  0.23859694
   0.25924341  0.25578950  0.76135021
   0.25209263  0.75296380  0.26128731
   0.23877997  0.74430462  0.74165716
   0.75815333  0.27124719  0.25814488
   0.73822743  0.24702787  0.74809568
   0.74204473  0.72859867  0.24235504
   0.76196574  0.75825967  0.75514460
 
 position of ions in cartesian coordinates  (Angst):
   3.14636736  3.15323814 12.70445853
   9.66820210  9.22953042 12.65828619
   0.07783240  3.49721462  3.06602540
   0.02373153  9.51241274  9.59417830
   6.04849459 12.72616445  6.68409265
   9.87551972  6.36323206  2.85630486
   6.21442014  2.86398946  9.61232428
   3.12080284  9.86120898  6.52766926
  12.72085620  0.00232842  0.00642662
   6.37992106  6.31317284 12.71039274
   0.02487357  6.41361360  6.35169281
   3.16469943  0.04107582  3.19437610
   9.54189872 12.68539005  9.56653973
   6.38856913  9.53973683  3.21033856
   3.18141644  6.36451370  9.55720326
   9.52202698  3.18755415  6.34228540
   3.11280244 12.64092008 12.72498123
   3.11066723  0.10311244  6.25110735
   3.18353749  6.45126515 12.66606581
   3.14505219  6.28176256  6.41674346
   9.58839850  0.08754161 12.69015131
   9.67820002  0.05243753  6.42808627
   9.43758818  6.25448027 12.65525445
   9.61233269  6.31804330  6.50842526
   0.11756448  3.10909844  0.15149489
  12.70350544  3.21875900  6.19214918
  12.58156235  9.62076398 12.61922329
   0.08840264  9.44096314  6.50077763
   6.23311901  3.28585386 12.64862286
   6.46360937  2.92207259  6.49645113
   6.54350207  9.50922226  0.02989963
   6.22974797  9.80288733  6.26963828
   0.04342253 12.64319671  3.14407584
   0.00684549  0.09389493  9.62198956
   0.07800519  6.47335442  3.29653397
   0.06672157  6.27899957  9.55293707
   6.30532874 12.67393757  3.05618348
   6.48268898 12.62090397  9.61954744
   6.22279725  6.40833359  3.11935289
   6.31693216  6.44899845  9.58776498
   3.12065274  3.07568611  3.03733474
   3.30056912  3.25614996  9.69097406
   3.20950906  9.58265447  3.32665775
   3.04064405  9.47288349  9.44079208
   9.64958833  3.45299745  3.28664458
   9.39655125  3.14521114  9.52270369
   9.44505743  9.27315556  3.08611552
   9.69923656  9.65111137  9.61295759
 


--------------------------------------------------------------------------------------------------------


 k-point   1 :   0.0000 0.0000 0.0000  plane waves:   18613
 k-point   2 :   0.2500-0.0000-0.0000  plane waves:   18533
 k-point   3 :   0.5000-0.0000 0.0000  plane waves:   18488
 k-point   4 :  -0.0000 0.2500 0.0000  plane waves:   18533
 k-point   5 :   0.2500 0.2500-0.0000  plane waves:   18509
 k-point   6 :   0.5000 0.2500 0.0000  plane waves:   18506
 k-point   7 :  -0.2500 0.2500-0.0000  plane waves:   18509
 k-point   8 :  -0.0000 0.5000 0.0000  plane waves:   18490
 k-point   9 :   0.2500 0.5000-0.0000  plane waves:   18507
 k-point  10 :   0.5000 0.5000-0.0000  plane waves:   18528
 k-point  11 :   0.0000 0.0000 0.2500  plane waves:   18533
 k-point  12 :   0.2500-0.0000 0.2500  plane waves:   18509
 k-point  13 :   0.5000-0.0000 0.2500  plane waves:   18506
 k-point  14 :  -0.2500 0.0000 0.2500  plane waves:   18509
 k-point  15 :  -0.0000 0.2500 0.2500  plane waves:   18509
 k-point  16 :   0.2500 0.2500 0.2500  plane waves:   18511
 k-point  17 :   0.5000 0.2500 0.2500  plane waves:   18478
 k-point  18 :  -0.2500 0.2500 0.2500  plane waves:   18525
 k-point  19 :  -0.0000 0.5000 0.2500  plane waves:   18506
 k-point  20 :   0.2500 0.5000 0.2500  plane waves:   18478
 k-point  21 :   0.5000 0.5000 0.2500  plane waves:   18500
 k-point  22 :  -0.2500 0.5000 0.2500  plane waves:   18478
 k-point  23 :  -0.0000-0.2500 0.2500  plane waves:   18509
 k-point  24 :   0.2500-0.2500 0.2500  plane waves:   18530
 k-point  25 :   0.5000-0.2500 0.2500  plane waves:   18478
 k-point  26 :  -0.2500-0.2500 0.2500  plane waves:   18518
 k-point  27 :   0.0000 0.0000 0.5000  plane waves:   18486
 k-point  28 :   0.2500-0.0000 0.5000  plane waves:   18506
 k-point  29 :   0.5000-0.0000 0.5000  plane waves:   18528
 k-point  30 :  -0.0000 0.2500 0.5000  plane waves:   18506
 k-point  31 :   0.2500 0.2500 0.5000  plane waves:   18478
 k-point  32 :   0.5000 0.2500 0.5000  plane waves:   18500
 k-point  33 :  -0.2500 0.2500 0.5000  plane waves:   18478
 k-point  34 :  -0.0000 0.5000 0.5000  plane waves:   18528
 k-point  35 :   0.2500 0.5000 0.5000  plane waves:   18500
 k-point  36 :   0.5000 0.5000 0.5000  plane waves:   18504

 maximum and minimum number of plane-waves per node :     18613    18478

 maximum number of plane-waves:     18613
 maximum index in each direction: 
   IXMAX=   16   IYMAX=   16   IZMAX=   16
   IXMIN=  -16   IYMIN=  -16   IZMIN=  -16


 serial   3D FFT for wavefunctions
 parallel 3D FFT for charge:
    minimum data exchange during FFTs selected (reduces bandwidth)


 total amount of memory used by VASP MPI-rank0  2782079. kBytes
=======================================================================

   base      :      30000. kBytes
   nonl-proj :     303764. kBytes
   fftplans  :      34720. kBytes
   grid      :      70000. kBytes
   one-center:        746. kBytes
   wavefun   :    2342849. kBytes
 
     INWAV:  cpu time    4.5524: real time    5.1324
 Broyden mixing: mesh for mixing (old mesh)
   NGX = 33   NGY = 33   NGZ = 33
  (NGX  =100   NGY  =100   NGZ  =100)
  gives a total of  35937 points

 initial charge density was supplied:
 number of electron     352.0000629 magnetization 
 keeping initial charge density in first step


--------------------------------------------------------------------------------------------------------


 Maximum index for augmentation-charges         5608 (set IRDMAX)


--------------------------------------------------------------------------------------------------------


 First call to EWALD:  gamma=   0.139
 Maximum number of real-space cells 3x 3x 3
 Maximum number of reciprocal cells 3x 3x 3

    FEWALD:  cpu time    0.0026: real time    0.0026


--------------------------------------- Iteration      1(   1)  ---------------------------------------


    POTLOK:  cpu time    0.5837: real time    0.5954
    SETDIJ:  cpu time    0.0273: real time    0.0273
     EDDAV:  cpu time   53.6990: real time   53.6994
 BZINTS: Fermi energy:    2.052295;  352.000000 electrons
         Band energy:-0.758936E+03;  BLOECHL correction:   -0.000000
       DOS:  cpu time    0.0570: real time    0.0570
    CHARGE:  cpu time    1.2146: real time    1.2146
    MIXING:  cpu time    0.0264: real time    0.0264
    --------------------------------------------
      LOOP:  cpu time   55.6081: real time   55.6203

 eigenvalue-minimisations  :  9672
 total energy-change (2. order) :-0.1199645E+03  (-0.2510738E-06)
 number of electron     352.0000629 magnetization 
 augmentation part      -23.1219808 magnetization 

 Broyden mixing:
  rms(total) = 0.67335E-03    rms(broyden)= 0.67332E-03
  rms(prec ) = 0.78770E-03
  weight for this iteration     100.00

 Free energy of the ion-electron system (eV)
  ---------------------------------------------------
  alpha Z        PSCENC =       225.90835930
  Ewald energy   TEWEN  =    -13870.04127303
  -Hartree energ DENC   =     -6078.73479239
  -exchange      EXHF   =         0.00000000
  -V(xc)+E(xc)   XCENC  =     -1392.37816665
  PAW double counting   =     22638.10807525   -20495.61458315
  entropy T*S    EENTRO =         0.00000000
  eigenvalues    EBANDS =      -758.93589807
  atomic energy  EATOM  =     19611.72375700
  Solvation  Ediel_sol  =         0.00000000
  ---------------------------------------------------
  free energy    TOTEN  =      -119.96452174 eV

  energy without entropy =     -119.96452174  energy(sigma->0) =     -119.96452174


--------------------------------------------------------------------------------------------------------




--------------------------------------- Iteration      1(   2)  ---------------------------------------


    POTLOK:  cpu time    0.5597: real time    0.5598
    SETDIJ:  cpu time    0.0577: real time    0.0577
     EDDAV:  cpu time   48.5732: real time   48.5735
 BZINTS: Fermi energy:    2.052433;  352.000000 electrons
         Band energy:-0.758932E+03;  BLOECHL correction:    0.000000
       DOS:  cpu time    0.0542: real time    0.0542
    --------------------------------------------
      LOOP:  cpu time   49.2448: real time   49.2452

 eigenvalue-minimisations  :  8208
 total energy-change (2. order) : 0.1271110E-07  (-0.1122753E-06)
 number of electron     352.0000629 magnetization 
 augmentation part      -23.1219808 magnetization 

 Free energy of the ion-electron system (eV)
  ---------------------------------------------------
  alpha Z        PSCENC =       225.90835930
  Ewald energy   TEWEN  =    -13870.04127303
  -Hartree energ DENC   =     -6078.73794432
  -exchange      EXHF   =         0.00000000
  -V(xc)+E(xc)   XCENC  =     -1392.37763843
  PAW double counting   =     22637.66801515   -20495.17535210
  entropy T*S    EENTRO =         0.00000000
  eigenvalues    EBANDS =      -758.93244529
  atomic energy  EATOM  =     19611.72375700
  Solvation  Ediel_sol  =         0.00000000
  ---------------------------------------------------
  free energy    TOTEN  =      -119.96452173 eV

  energy without entropy =     -119.96452173  energy(sigma->0) =     -119.96452173


--------------------------------------------------------------------------------------------------------




 average (electrostatic) potential at core
  the test charge radii are     1.1249  1.4024  1.1875
  (the norm of the test charge is              1.0000)
       1 -75.0028       2 -75.0626       3 -75.0614       4 -75.0041       5 -75.1932
       6 -75.1927       7 -75.0698       8 -75.0707       9 -65.5046      10 -65.5353
      11 -65.5366      12 -65.5308      13 -65.5308      14 -65.4767      15 -65.5100
      16 -65.4776      17 -93.3249      18 -93.2346      19 -93.3160      20 -93.3385
      21 -93.3376      22 -93.3221      23 -93.2305      24 -93.3178      25 -92.9965
      26 -93.1969      27 -93.0007      28 -93.0820      29 -93.0830      30 -93.1003
      31 -93.1966      32 -93.1032      33 -93.3334      34 -93.3103      35 -93.2356
      36 -93.3293      37 -93.3205      38 -93.2278      39 -93.3196      40 -93.3424
      41 -93.0729      42 -93.0147      43 -93.1712      44 -93.0123      45 -93.0818
      46 -93.1758      47 -93.0784      48 -93.0793
 
 
 
 E-fermi :   2.0524     XC(G=0):  -7.7998     alpha+bet : -7.7645


 k-point     1 :       0.0000    0.0000    0.0000
  band No.  band energies     occupation 
      1     -10.8458      2.00000
      2     -10.7174      2.00000
      3     -10.6702      2.00000
      4     -10.5354      2.00000
      5     -10.4828      2.00000
      6     -10.2583      2.00000
      7     -10.2227      2.00000
      8     -10.0439      2.00000
      9      -9.8902      2.00000
     10      -9.8838      2.00000
     11      -9.8708      2.00000
     12      -9.8517      2.00000
     13      -9.8448      2.00000
     14      -9.8090      2.00000
     15      -9.8059      2.00000
     16      -9.7427      2.00000
     17      -9.7319      2.00000
     18      -9.7172      2.00000
     19      -9.7059      2.00000
     20      -9.7028      2.00000
     21      -9.6847      2.00000
     22      -9.6606      2.00000
     23      -9.6548      2.00000
     24      -9.6267      2.00000
     25      -9.6146      2.00000
     26      -9.6063      2.00000
     27      -9.5907      2.00000
     28      -9.5641      2.00000
     29      -9.5548      2.00000
     30      -9.5517      2.00000
     31      -9.5431      2.00000
     32      -9.5119      2.00000
     33      -8.2252      2.00000
     34      -8.1255      2.00000
     35      -8.1144      2.00000
     36      -7.8839      2.00000
     37      -7.8580      2.00000
     38      -7.6478      2.00000
     39      -7.6333      2.00000
     40      -7.6315      2.00000
     41      -1.8234      2.00000
     42      -1.7631      2.00000
     43      -1.7202      2.00000
     44      -1.7042      2.00000
     45      -1.6573      2.00000
     46      -1.5878      2.00000
     47      -1.5340      2.00000
     48      -1.4790      2.00000
     49      -1.4720      2.00000
     50      -1.4407      2.00000
     51      -1.4358      2.00000
     52      -1.3936      2.00000
     53      -1.3580      2.00000
     54      -1.3300      2.00000
     55      -1.3223      2.00000
     56      -1.2780      2.00000
     57      -1.2357      2.00000
     58      -1.2263      2.00000
     59      -1.1586      2.00000
     60      -1.1148      2.00000
     61      -1.1014      2.00000
     62      -1.0673      2.00000
     63      -1.0223      2.00000
     64      -1.0201      2.00000
     65      -1.0181      2.00000
     66      -1.0001      2.00000
     67      -0.9879      2.00000
     68      -0.9861      2.00000
     69      -0.9633      2.00000
     70      -0.9234      2.00000
     71      -0.9198      2.00000
     72      -0.9182      2.00000
     73      -0.8880      2.00000
     74      -0.8525      2.00000
     75      -0.8475      2.00000
     76      -0.8206      2.00000
     77      -0.8145      2.00000
     78      -0.8076      2.00000
     79      -0.7819      2.00000
     80      -0.7344      2.00000
     81      -0.7033      2.00000
     82      -0.7004      2.00000
     83      -0.6643      2.00000
     84      -0.6438      2.00000
     85      -0.6344      2.00000
     86      -0.6200      2.00000
     87      -0.5801      2.00000
     88      -0.5533      2.00000
     89      -0.5437      2.00000
     90      -0.5099      2.00000
     91      -0.4919      2.00000
     92      -0.4734      2.00000
     93      -0.4672      2.00000
     94      -0.4198      2.00000
     95      -0.4030      2.00000
     96      -0.3774      2.00000
     97      -0.3590      2.00000
     98      -0.3525      2.00000
     99      -0.3318      2.00000
    100      -0.3240      2.00000
    101      -0.2884      2.00000
    102      -0.2667      2.00000
    103      -0.2604      2.00000
    104      -0.2282      2.00000
    105      -0.2131      2.00000
    106      -0.2045      2.00000
    107      -0.1767      2.00000
    108      -0.1573      2.00000
    109      -0.1322      2.00000
    110      -0.1209      2.00000
    111      -0.0646      2.00000
    112      -0.0512      2.00000
    113       0.0745      2.00000
    114       0.1242      2.00000
    115       0.1627      2.00000
    116       0.1744      2.00000
    117       0.1819      2.00000
    118       0.2110      2.00000
    119       0.2343      2.00000
    120       0.2399      2.00000
    121       0.2526      2.00000
    122       0.2871      2.00000
    123       0.3509      2.00000
    124       0.3958      2.00000
    125       0.3968      2.00000
    126       0.4143      2.00000
    127       0.4778      2.00000
    128       0.5164      2.00000
    129       0.5256      2.00000
    130       0.5268      2.00000
    131       0.5410      2.00000
    132       0.5498      2.00000
    133       0.5817      2.00000
    134       0.6361      2.00000
    135       0.6892      2.00000
    136       0.7056      2.00000
    137       0.7098      2.00000
    138       0.7146      2.00000
    139       0.7245      2.00000
    140       0.7770      2.00000
    141       0.7850      2.00000
    142       0.7891      2.00000
    143       0.8189      2.00000
    144       0.8363      2.00000
    145       0.8457      2.00000
    146       0.8888      2.00000
    147       0.9369      2.00000
    148       0.9595      2.00000
    149       0.9864      2.00000
    150       1.0265      2.00000
    151       1.0621      2.00000
    152       1.0908      2.00000
    153       1.1007      2.00000
    154       1.1464      2.00000
    155       1.1602      2.00000
    156       1.1713      2.00000
    157       1.1926      2.00000
    158       1.2005      2.00000
    159       1.2367      2.00000
    160       1.3036      2.00000
    161       1.3560      2.00000
    162       1.3980      2.00000
    163       1.4514      2.00000
    164       1.4802      2.00000
    165       1.5288      2.00000
    166       1.5419      2.00000
    167       1.5691      2.00000
    168       1.5956      2.00000
    169       1.7520      2.00000
    170       1.7578      2.00000
    171       1.8703      2.00000
    172       1.8862      2.00000
    173       1.9968      2.00000
    174       2.0070      2.00000
    175       2.0230      2.00000
    176       2.0524      2.00000
    177       3.8351      0.00000
    178       3.9991      0.00000
    179       4.0033      0.00000
    180       4.1173      0.00000
    181       4.1575      0.00000
    182       4.3380      0.00000
    183       4.3385      0.00000
    184       4.3891      0.00000
    185       4.4171      0.00000
    186       4.4330      0.00000
    187       4.5142      0.00000
    188       4.5259      0.00000
    189       4.5517      0.00000
    190       4.5605      0.00000
    191       4.5952      0.00000
    192       4.6028      0.00000
    193       4.6404      0.00000
    194       4.6978      0.00000
    195       4.7283      0.00000
    196       4.7306      0.00000
    197       4.7938      0.00000
    198       4.8232      0.00000
    199       4.8302      0.00000
    200       4.9492      0.00000
    201       5.0682      0.00000
    202       5.2648      0.00000
    203       5.5761      0.00000
    204       5.7209      0.00000
    205       5.9076      0.00000
    206       5.9275      0.00000
    207       5.9442      0.00000
    208       5.9810      0.00000
    209       7.1528      0.00000
    210       7.2600      0.00000
    211       7.2691      0.00000

 k-point     2 :       0.2500   -0.0000   -0.0000
  band No.  band energies     occupation 
      1     -10.8310      2.00000
      2     -10.7228      2.00000
      3     -10.6908      2.00000
      4     -10.5327      2.00000
      5     -10.4795      2.00000
      6     -10.2566      2.00000
      7     -10.2120      2.00000
      8     -10.0547      2.00000
      9      -9.8951      2.00000
     10      -9.8908      2.00000
     11      -9.8770      2.00000
     12      -9.8527      2.00000
     13      -9.8468      2.00000
     14      -9.7993      2.00000
     15      -9.7873      2.00000
     16      -9.7452      2.00000
     17      -9.7320      2.00000
     18      -9.7178      2.00000
     19      -9.6989      2.00000
     20      -9.6951      2.00000
     21      -9.6907      2.00000
     22      -9.6610      2.00000
     23      -9.6490      2.00000
     24      -9.6331      2.00000
     25      -9.6118      2.00000
     26      -9.6084      2.00000
     27      -9.5858      2.00000
     28      -9.5695      2.00000
     29      -9.5571      2.00000
     30      -9.5526      2.00000
     31      -9.5413      2.00000
     32      -9.5175      2.00000
     33      -8.2304      2.00000
     34      -8.1231      2.00000
     35      -8.1133      2.00000
     36      -7.8829      2.00000
     37      -7.8584      2.00000
     38      -7.6793      2.00000
     39      -7.6316      2.00000
     40      -7.6020      2.00000
     41      -1.8017      2.00000
     42      -1.7482      2.00000
     43      -1.7192      2.00000
     44      -1.6899      2.00000
     45      -1.6507      2.00000
     46      -1.6097      2.00000
     47      -1.5626      2.00000
     48      -1.5477      2.00000
     49      -1.4954      2.00000
     50      -1.4508      2.00000
     51      -1.3958      2.00000
     52      -1.3855      2.00000
     53      -1.3504      2.00000
     54      -1.3251      2.00000
     55      -1.3015      2.00000
     56      -1.2726      2.00000
     57      -1.2252      2.00000
     58      -1.2024      2.00000
     59      -1.1799      2.00000
     60      -1.1315      2.00000
     61      -1.1181      2.00000
     62      -1.0852      2.00000
     63      -1.0527      2.00000
     64      -1.0354      2.00000
     65      -1.0195      2.00000
     66      -0.9993      2.00000
     67      -0.9788      2.00000
     68      -0.9671      2.00000
     69      -0.9472      2.00000
     70      -0.9359      2.00000
     71      -0.9163      2.00000
     72      -0.9039      2.00000
     73      -0.8866      2.00000
     74      -0.8729      2.00000
     75      -0.8384      2.00000
     76      -0.8195      2.00000
     77      -0.8125      2.00000
     78      -0.8090      2.00000
     79      -0.7643      2.00000
     80      -0.7547      2.00000
     81      -0.7061      2.00000
     82      -0.6833      2.00000
     83      -0.6631      2.00000
     84      -0.6503      2.00000
     85      -0.6318      2.00000
     86      -0.5939      2.00000
     87      -0.5830      2.00000
     88      -0.5556      2.00000
     89      -0.5138      2.00000
     90      -0.4992      2.00000
     91      -0.4816      2.00000
     92      -0.4752      2.00000
     93      -0.4443      2.00000
     94      -0.4209      2.00000
     95      -0.4000      2.00000
     96      -0.3906      2.00000
     97      -0.3748      2.00000
     98      -0.3696      2.00000
     99      -0.3443      2.00000
    100      -0.3169      2.00000
    101      -0.3052      2.00000
    102      -0.2839      2.00000
    103      -0.2286      2.00000
    104      -0.2249      2.00000
    105      -0.2105      2.00000
    106      -0.1804      2.00000
    107      -0.1618      2.00000
    108      -0.1603      2.00000
    109      -0.1482      2.00000
    110      -0.1350      2.00000
    111      -0.1027      2.00000
    112      -0.0541      2.00000
    113       0.0795      2.00000
    114       0.1091      2.00000
    115       0.1316      2.00000
    116       0.1464      2.00000
    117       0.1760      2.00000
    118       0.2262      2.00000
    119       0.2464      2.00000
    120       0.2632      2.00000
    121       0.2845      2.00000
    122       0.3344      2.00000
    123       0.3495      2.00000
    124       0.3553      2.00000
    125       0.4166      2.00000
    126       0.4450      2.00000
    127       0.4640      2.00000
    128       0.5103      2.00000
    129       0.5252      2.00000
    130       0.5539      2.00000
    131       0.5645      2.00000
    132       0.5917      2.00000
    133       0.6004      2.00000
    134       0.6252      2.00000
    135       0.6469      2.00000
    136       0.6855      2.00000
    137       0.6981      2.00000
    138       0.7174      2.00000
    139       0.7524      2.00000
    140       0.7588      2.00000
    141       0.7752      2.00000
    142       0.8121      2.00000
    143       0.8183      2.00000
    144       0.8307      2.00000
    145       0.8626      2.00000
    146       0.8957      2.00000
    147       0.9701      2.00000
    148       0.9860      2.00000
    149       0.9916      2.00000
    150       1.0094      2.00000
    151       1.0186      2.00000
    152       1.0764      2.00000
    153       1.1234      2.00000
    154       1.1480      2.00000
    155       1.1503      2.00000
    156       1.1531      2.00000
    157       1.1872      2.00000
    158       1.2076      2.00000
    159       1.2412      2.00000
    160       1.2923      2.00000
    161       1.3516      2.00000
    162       1.4046      2.00000
    163       1.4619      2.00000
    164       1.4767      2.00000
    165       1.5221      2.00000
    166       1.5466      2.00000
    167       1.5952      2.00000
    168       1.6168      2.00000
    169       1.7481      2.00000
    170       1.7612      2.00000
    171       1.8476      2.00000
    172       1.8727      2.00000
    173       1.9628      2.00000
    174       1.9719      2.00000
    175       2.0034      2.00000
    176       2.0147      2.00000
    177       3.8942      0.00000
    178       3.9849      0.00000
    179       4.0247      0.00000
    180       4.1392      0.00000
    181       4.1613      0.00000
    182       4.2974      0.00000
    183       4.3171      0.00000
    184       4.3885      0.00000
    185       4.4205      0.00000
    186       4.4438      0.00000
    187       4.4634      0.00000
    188       4.5027      0.00000
    189       4.5734      0.00000
    190       4.5801      0.00000
    191       4.5920      0.00000
    192       4.6207      0.00000
    193       4.6464      0.00000
    194       4.6548      0.00000
    195       4.6937      0.00000
    196       4.7534      0.00000
    197       4.7807      0.00000
    198       4.8212      0.00000
    199       4.8534      0.00000
    200       4.9280      0.00000
    201       5.1951      0.00000
    202       5.3492      0.00000
    203       5.5869      0.00000
    204       5.7327      0.00000
    205       5.8058      0.00000
    206       5.8262      0.00000
    207       5.9466      0.00000
    208       5.9609      0.00000
    209       7.2646      0.00000
    210       7.2995      0.00000
    211       7.3689      0.00000

 k-point     3 :       0.5000   -0.0000    0.0000
  band No.  band energies     occupation 
      1     -10.8074      2.00000
      2     -10.7463      2.00000
      3     -10.7005      2.00000
      4     -10.5310      2.00000
      5     -10.4765      2.00000
      6     -10.2563      2.00000
      7     -10.1996      2.00000
      8     -10.0649      2.00000
      9      -9.8996      2.00000
     10      -9.8978      2.00000
     11      -9.8812      2.00000
     12      -9.8544      2.00000
     13      -9.8482      2.00000
     14      -9.7885      2.00000
     15      -9.7698      2.00000
     16      -9.7463      2.00000
     17      -9.7389      2.00000
     18      -9.7129      2.00000
     19      -9.7023      2.00000
     20      -9.6967      2.00000
     21      -9.6748      2.00000
     22      -9.6681      2.00000
     23      -9.6432      2.00000
     24      -9.6232      2.00000
     25      -9.6197      2.00000
     26      -9.6146      2.00000
     27      -9.5830      2.00000
     28      -9.5777      2.00000
     29      -9.5563      2.00000
     30      -9.5502      2.00000
     31      -9.5358      2.00000
     32      -9.5288      2.00000
     33      -8.2355      2.00000
     34      -8.1222      2.00000
     35      -8.1104      2.00000
     36      -7.8825      2.00000
     37      -7.8586      2.00000
     38      -7.6960      2.00000
     39      -7.6291      2.00000
     40      -7.5878      2.00000
     41      -1.7655      2.00000
     42      -1.7466      2.00000
     43      -1.6977      2.00000
     44      -1.6728      2.00000
     45      -1.6602      2.00000
     46      -1.6412      2.00000
     47      -1.5920      2.00000
     48      -1.5712      2.00000
     49      -1.5234      2.00000
     50      -1.4498      2.00000
     51      -1.4216      2.00000
     52      -1.3829      2.00000
     53      -1.3171      2.00000
     54      -1.3081      2.00000
     55      -1.2911      2.00000
     56      -1.2559      2.00000
     57      -1.2369      2.00000
     58      -1.1918      2.00000
     59      -1.1810      2.00000
     60      -1.1646      2.00000
     61      -1.1525      2.00000
     62      -1.1047      2.00000
     63      -1.0508      2.00000
     64      -1.0172      2.00000
     65      -1.0164      2.00000
     66      -0.9950      2.00000
     67      -0.9673      2.00000
     68      -0.9554      2.00000
     69      -0.9447      2.00000
     70      -0.9369      2.00000
     71      -0.9298      2.00000
     72      -0.9029      2.00000
     73      -0.8704      2.00000
     74      -0.8608      2.00000
     75      -0.8465      2.00000
     76      -0.8327      2.00000
     77      -0.8112      2.00000
     78      -0.8054      2.00000
     79      -0.7831      2.00000
     80      -0.7670      2.00000
     81      -0.6976      2.00000
     82      -0.6722      2.00000
     83      -0.6595      2.00000
     84      -0.6374      2.00000
     85      -0.6345      2.00000
     86      -0.5935      2.00000
     87      -0.5730      2.00000
     88      -0.5232      2.00000
     89      -0.5099      2.00000
     90      -0.5050      2.00000
     91      -0.4926      2.00000
     92      -0.4758      2.00000
     93      -0.4338      2.00000
     94      -0.4236      2.00000
     95      -0.4051      2.00000
     96      -0.3854      2.00000
     97      -0.3596      2.00000
     98      -0.3540      2.00000
     99      -0.3440      2.00000
    100      -0.3338      2.00000
    101      -0.3125      2.00000
    102      -0.3039      2.00000
    103      -0.2333      2.00000
    104      -0.2108      2.00000
    105      -0.1915      2.00000
    106      -0.1816      2.00000
    107      -0.1670      2.00000
    108      -0.1641      2.00000
    109      -0.1501      2.00000
    110      -0.1252      2.00000
    111      -0.1199      2.00000
    112      -0.0594      2.00000
    113       0.0401      2.00000
    114       0.0516      2.00000
    115       0.0992      2.00000
    116       0.1447      2.00000
    117       0.1752      2.00000
    118       0.2101      2.00000
    119       0.2622      2.00000
    120       0.2835      2.00000
    121       0.3130      2.00000
    122       0.3831      2.00000
    123       0.4012      2.00000
    124       0.4154      2.00000
    125       0.4471      2.00000
    126       0.4560      2.00000
    127       0.4907      2.00000
    128       0.5100      2.00000
    129       0.5282      2.00000
    130       0.5423      2.00000
    131       0.5548      2.00000
    132       0.5720      2.00000
    133       0.5766      2.00000
    134       0.6363      2.00000
    135       0.6408      2.00000
    136       0.6528      2.00000
    137       0.7095      2.00000
    138       0.7181      2.00000
    139       0.7460      2.00000
    140       0.7542      2.00000
    141       0.7700      2.00000
    142       0.7940      2.00000
    143       0.8170      2.00000
    144       0.8729      2.00000
    145       0.8776      2.00000
    146       0.9201      2.00000
    147       0.9354      2.00000
    148       0.9699      2.00000
    149       0.9995      2.00000
    150       1.0327      2.00000
    151       1.0611      2.00000
    152       1.0650      2.00000
    153       1.0845      2.00000
    154       1.0903      2.00000
    155       1.1438      2.00000
    156       1.1640      2.00000
    157       1.1889      2.00000
    158       1.2310      2.00000
    159       1.2474      2.00000
    160       1.2702      2.00000
    161       1.3843      2.00000
    162       1.4066      2.00000
    163       1.4418      2.00000
[...]
    143       0.8504      2.00000
    144       0.8533      2.00000
    145       0.9173      2.00000
    146       0.9267      2.00000
    147       1.0120      2.00000
    148       1.0171      2.00000
    149       1.0362      2.00000
    150       1.0416      2.00000
    151       1.0714      2.00000
    152       1.0756      2.00000
    153       1.0949      2.00000
    154       1.0975      2.00000
    155       1.1611      2.00000
    156       1.1632      2.00000
    157       1.2042      2.00000
    158       1.2061      2.00000
    159       1.2607      2.00000
    160       1.2638      2.00000
    161       1.4380      2.00000
    162       1.4410      2.00000
    163       1.5712      2.00000
    164       1.5754      2.00000
    165       1.5797      2.00000
    166       1.5843      2.00000
    167       1.6736      2.00000
    168       1.6763      2.00000
    169       1.7470      2.00000
    170       1.7526      2.00000
    171       1.8280      2.00000
    172       1.8311      2.00000
    173       1.8632      2.00000
    174       1.8678      2.00000
    175       1.9799      2.00000
    176       1.9826      2.00000
    177       3.8023      0.00000
    178       3.8063      0.00000
    179       3.9869      0.00000
    180       3.9896      0.00000
    181       4.0991      0.00000
    182       4.1019      0.00000
    183       4.2510      0.00000
    184       4.2536      0.00000
    185       4.3194      0.00000
    186       4.3233      0.00000
    187       4.4219      0.00000
    188       4.4255      0.00000
    189       4.5964      0.00000
    190       4.5994      0.00000
    191       4.6732      0.00000
    192       4.6799      0.00000
    193       4.7673      0.00000
    194       4.7710      0.00000
    195       4.8153      0.00000
    196       4.8213      0.00000
    197       4.8809      0.00000
    198       4.8823      0.00000
    199       5.0104      0.00000
    200       5.0129      0.00000
    201       5.5474      0.00000
    202       5.5507      0.00000
    203       5.5874      0.00000
    204       5.5923      0.00000
    205       5.6276      0.00000
    206       5.6488      0.00000
    207       5.7821      0.00000
    208       5.7854      0.00000
    209       7.3210      0.00000
    210       7.3245      0.00000
    211       7.4899      0.00000

 k-point    36 :       0.5000    0.5000    0.5000
  band No.  band energies     occupation 
      1     -10.7726      2.00000
      2     -10.7685      2.00000
      3     -10.6424      2.00000
      4     -10.6413      2.00000
      5     -10.3853      2.00000
      6     -10.3848      2.00000
      7     -10.1201      2.00000
      8     -10.1154      2.00000
      9      -9.9083      2.00000
     10      -9.9071      2.00000
     11      -9.8218      2.00000
     12      -9.8179      2.00000
     13      -9.7930      2.00000
     14      -9.7917      2.00000
     15      -9.7520      2.00000
     16      -9.7512      2.00000
     17      -9.7300      2.00000
     18      -9.7276      2.00000
     19      -9.7072      2.00000
     20      -9.7017      2.00000
     21      -9.6959      2.00000
     22      -9.6929      2.00000
     23      -9.6414      2.00000
     24      -9.6327      2.00000
     25      -9.6175      2.00000
     26      -9.6132      2.00000
     27      -9.5885      2.00000
     28      -9.5841      2.00000
     29      -9.5554      2.00000
     30      -9.5507      2.00000
     31      -9.5405      2.00000
     32      -9.5385      2.00000
     33      -8.2025      2.00000
     34      -8.2001      2.00000
     35      -8.0081      2.00000
     36      -8.0051      2.00000
     37      -7.7671      2.00000
     38      -7.7653      2.00000
     39      -7.5903      2.00000
     40      -7.5863      2.00000
     41      -1.7859      2.00000
     42      -1.7808      2.00000
     43      -1.6777      2.00000
     44      -1.6772      2.00000
     45      -1.6344      2.00000
     46      -1.6325      2.00000
     47      -1.5413      2.00000
     48      -1.5392      2.00000
     49      -1.4934      2.00000
     50      -1.4919      2.00000
     51      -1.4601      2.00000
     52      -1.4584      2.00000
     53      -1.3800      2.00000
     54      -1.3794      2.00000
     55      -1.2897      2.00000
     56      -1.2884      2.00000
     57      -1.2728      2.00000
     58      -1.2709      2.00000
     59      -1.1443      2.00000
     60      -1.1373      2.00000
     61      -1.0499      2.00000
     62      -1.0454      2.00000
     63      -1.0135      2.00000
     64      -1.0084      2.00000
     65      -0.9992      2.00000
     66      -0.9889      2.00000
     67      -0.9714      2.00000
     68      -0.9654      2.00000
     69      -0.9224      2.00000
     70      -0.9103      2.00000
     71      -0.8889      2.00000
     72      -0.8837      2.00000
     73      -0.8718      2.00000
     74      -0.8705      2.00000
     75      -0.8451      2.00000
     76      -0.8442      2.00000
     77      -0.8321      2.00000
     78      -0.8260      2.00000
     79      -0.7471      2.00000
     80      -0.7462      2.00000
     81      -0.6991      2.00000
     82      -0.6946      2.00000
     83      -0.6277      2.00000
     84      -0.6238      2.00000
     85      -0.5940      2.00000
     86      -0.5875      2.00000
     87      -0.5529      2.00000
     88      -0.5526      2.00000
     89      -0.5240      2.00000
     90      -0.5183      2.00000
     91      -0.4823      2.00000
     92      -0.4794      2.00000
     93      -0.4111      2.00000
     94      -0.4063      2.00000
     95      -0.3866      2.00000
     96      -0.3818      2.00000
     97      -0.3640      2.00000
     98      -0.3588      2.00000
     99      -0.3184      2.00000
    100      -0.3130      2.00000
    101      -0.3101      2.00000
    102      -0.3044      2.00000
    103      -0.2616      2.00000
    104      -0.2547      2.00000
    105      -0.2120      2.00000
    106      -0.2088      2.00000
    107      -0.1901      2.00000
    108      -0.1855      2.00000
    109      -0.1485      2.00000
    110      -0.1463      2.00000
    111      -0.0882      2.00000
    112      -0.0839      2.00000
    113       0.0333      2.00000
    114       0.0363      2.00000
    115       0.1449      2.00000
    116       0.1468      2.00000
    117       0.2298      2.00000
    118       0.2366      2.00000
    119       0.2817      2.00000
    120       0.2852      2.00000
    121       0.3640      2.00000
    122       0.3675      2.00000
    123       0.3708      2.00000
    124       0.3725      2.00000
    125       0.4202      2.00000
    126       0.4219      2.00000
    127       0.4551      2.00000
    128       0.4568      2.00000
    129       0.5095      2.00000
    130       0.5162      2.00000
    131       0.5501      2.00000
    132       0.5535      2.00000
    133       0.5696      2.00000
    134       0.5782      2.00000
    135       0.6071      2.00000
    136       0.6075      2.00000
    137       0.6643      2.00000
    138       0.6710      2.00000
    139       0.6956      2.00000
    140       0.7060      2.00000
    141       0.7373      2.00000
    142       0.7422      2.00000
    143       0.8782      2.00000
    144       0.8808      2.00000
    145       0.9037      2.00000
    146       0.9133      2.00000
    147       1.0297      2.00000
    148       1.0344      2.00000
    149       1.0488      2.00000
    150       1.0555      2.00000
    151       1.0722      2.00000
    152       1.0743      2.00000
    153       1.0876      2.00000
    154       1.0886      2.00000
    155       1.1724      2.00000
    156       1.1740      2.00000
    157       1.1995      2.00000
    158       1.2009      2.00000
    159       1.2636      2.00000
    160       1.2674      2.00000
    161       1.4695      2.00000
    162       1.4735      2.00000
    163       1.5698      2.00000
    164       1.5747      2.00000
    165       1.5803      2.00000
    166       1.5830      2.00000
    167       1.6897      2.00000
    168       1.6923      2.00000
    169       1.7679      2.00000
    170       1.7715      2.00000
    171       1.8289      2.00000
    172       1.8324      2.00000
    173       1.8628      2.00000
    174       1.8640      2.00000
    175       2.0166      2.00000
    176       2.0180      2.00000
    177       3.7044      0.00000
    178       3.7072      0.00000
    179       3.9101      0.00000
    180       3.9128      0.00000
    181       4.0399      0.00000
    182       4.0428      0.00000
    183       4.2265      0.00000
    184       4.2280      0.00000
    185       4.3108      0.00000
    186       4.3162      0.00000
    187       4.4213      0.00000
    188       4.4227      0.00000
    189       4.6103      0.00000
    190       4.6149      0.00000
    191       4.6994      0.00000
    192       4.7036      0.00000
    193       4.8145      0.00000
    194       4.8205      0.00000
    195       4.8453      0.00000
    196       4.8472      0.00000
    197       4.9470      0.00000
    198       4.9489      0.00000
    199       5.0263      0.00000
    200       5.0294      0.00000
    201       5.5318      0.00000
    202       5.5335      0.00000
    203       5.5630      0.00000
    204       5.5643      0.00000
    205       5.5961      0.00000
    206       5.6207      0.00000
    207       5.7967      0.00000
    208       5.7980      0.00000
    209       7.2406      0.00000
    210       7.2443      0.00000
    211       7.4981      0.00000


--------------------------------------------------------------------------------------------------------


 soft charge-density along one line, spin component           1
         0         1         2         3         4         5         6         7         8         9
 total charge-density along one line
 
 pseudopotential strength for first ion, spin component:           1
 -6.429   0.000  -0.000  -0.000   0.000  -6.565   0.000  -0.000
  0.000  -6.429  -0.001   0.000   0.000   0.000  -6.565  -0.001
 -0.000  -0.001  -6.413   0.000  -0.007  -0.000  -0.001  -6.549
 -0.000   0.000   0.000  -6.418   0.000  -0.000   0.000   0.000
  0.000   0.000  -0.007   0.000  -6.420   0.000   0.000  -0.006
 -6.565   0.000  -0.000  -0.000   0.000  -6.670   0.000  -0.000
  0.000  -6.565  -0.001   0.000   0.000   0.000  -6.670  -0.001
 -0.000  -0.001  -6.549   0.000  -0.006  -0.000  -0.001  -6.655
 -0.000   0.000   0.000  -6.554   0.000  -0.000   0.000   0.000
  0.000   0.000  -0.006   0.000  -6.556   0.000   0.000  -0.006
  0.000  -0.000   0.001  -0.001   0.000   0.000  -0.000   0.001
  0.000  -0.000   0.001  -0.001   0.001   0.000  -0.000   0.001
  0.002   0.001  -0.000   0.000  -0.001   0.002   0.001  -0.000
  0.000   0.000   0.002   0.002  -0.000   0.000   0.000   0.002
  0.000   0.000  -0.001   0.001   0.002   0.000   0.000  -0.001
  0.002   0.002  -0.000   0.000  -0.001   0.002   0.002  -0.000
  0.000   0.001   0.002   0.002  -0.000   0.000   0.001   0.002
  0.000   0.000  -0.001   0.002   0.002   0.000   0.000  -0.001
 total augmentation occupancy for first ion, spin component:           1
  2.207  -0.002  -0.048  -0.009   0.057  -0.225   0.007   0.048   0.011  -0.050  -0.053   0.010   0.001   0.000  -0.008   0.001
 -0.002   2.209  -0.085   0.010   0.010   0.007  -0.232   0.078  -0.012  -0.014   0.057  -0.010   0.001  -0.003   0.001   0.001
 -0.048  -0.085   4.348  -0.016  -0.340   0.048   0.078  -2.168   0.019   0.323  -0.225   0.029  -0.009   0.026  -0.024   0.000
 -0.009   0.010  -0.016   2.272  -0.058   0.011  -0.012   0.018  -0.302   0.059   0.080  -0.018   0.001  -0.014  -0.013  -0.000
  0.057   0.010  -0.340  -0.058   3.882  -0.050  -0.014   0.323   0.059  -1.719  -0.303   0.035  -0.021  -0.008   0.026   0.001
 -0.225   0.007   0.048   0.011  -0.050   0.225  -0.010  -0.048  -0.013   0.044   0.048  -0.011  -0.002  -0.000   0.006   0.000
  0.007  -0.232   0.078  -0.012  -0.014  -0.010   0.236  -0.072   0.013   0.017  -0.052   0.011  -0.002   0.002  -0.001   0.000
  0.048   0.078  -2.168   0.018   0.323  -0.048  -0.072   1.992  -0.020  -0.308   0.204  -0.037   0.008  -0.024   0.022  -0.001
  0.011  -0.012   0.019  -0.302   0.059  -0.013   0.013  -0.020   0.314  -0.060  -0.069   0.017  -0.000   0.011   0.010   0.000
 -0.050  -0.014   0.323   0.059  -1.719   0.044   0.017  -0.308  -0.060   1.559   0.276  -0.048   0.019   0.007  -0.024  -0.001
 -0.053   0.057  -0.225   0.080  -0.303   0.048  -0.052   0.204  -0.069   0.276   1.415  -0.302  -0.004  -0.008  -0.010   0.000
  0.010  -0.010   0.029  -0.018   0.035  -0.011   0.011  -0.037   0.017  -0.048  -0.302   0.069   0.001   0.001   0.002  -0.000
  0.001   0.001  -0.009   0.001  -0.021  -0.002  -0.002   0.008  -0.000   0.019  -0.004   0.001   0.061  -0.003   0.003  -0.004
  0.000  -0.003   0.026  -0.014  -0.008  -0.000   0.002  -0.024   0.011   0.007  -0.008   0.001  -0.003   0.101  -0.004   0.000
 -0.008   0.001  -0.024  -0.013   0.026   0.006  -0.001   0.022   0.010  -0.024  -0.010   0.002   0.003  -0.004   0.097  -0.000
  0.001   0.001   0.000  -0.000   0.001   0.000   0.000  -0.001   0.000  -0.001   0.000  -0.000  -0.004   0.000  -0.000   0.000
 -0.000   0.000  -0.001   0.002   0.000   0.000  -0.000   0.001  -0.001  -0.000   0.001  -0.000   0.000  -0.007   0.000  -0.000
  0.001  -0.000   0.001   0.001  -0.000  -0.000   0.000  -0.001  -0.001   0.001   0.001  -0.000  -0.000   0.000  -0.007   0.000


------------------------ aborting loop because EDIFF is reached ----------------------------------------


 


 total charge     
 
# of ion       s       p       d       tot
------------------------------------------
    1        0.238   0.147   9.323   9.708
    2        0.241   0.151   9.320   9.712
    3        0.241   0.151   9.320   9.712
    4        0.238   0.147   9.323   9.708
    5        0.253   0.158   9.312   9.723
    6        0.255   0.160   9.311   9.725
    7        0.241   0.151   9.320   9.712
    8        0.241   0.151   9.320   9.712
    9        1.835   1.397   0.139   3.371
   10        1.834   1.401   0.138   3.372
   11        1.833   1.401   0.138   3.372
   12        1.834   1.400   0.138   3.372
   13        1.834   1.400   0.138   3.372
   14        1.833   1.400   0.135   3.368
   15        1.835   1.397   0.139   3.371
   16        1.833   1.400   0.135   3.368
   17        1.518   2.742   0.013   4.273
   18        1.514   2.742   0.017   4.273
   19        1.518   2.742   0.012   4.273
   20        1.518   2.742   0.012   4.272
   21        1.518   2.742   0.012   4.272
   22        1.518   2.742   0.011   4.271
   23        1.514   2.742   0.017   4.273
   24        1.518   2.742   0.011   4.271
   25        1.513   2.747   0.016   4.276
   26        1.517   2.745   0.013   4.275
   27        1.513   2.747   0.016   4.276
   28        1.516   2.743   0.015   4.274
   29        1.516   2.743   0.015   4.274
   30        1.514   2.743   0.015   4.272
   31        1.517   2.745   0.013   4.275
   32        1.514   2.743   0.015   4.272
   33        1.518   2.742   0.012   4.272
   34        1.518   2.743   0.012   4.273
   35        1.514   2.742   0.017   4.273
   36        1.518   2.742   0.013   4.273
   37        1.518   2.742   0.011   4.271
   38        1.514   2.742   0.017   4.273
   39        1.518   2.742   0.011   4.271
   40        1.518   2.742   0.012   4.272
   41        1.515   2.744   0.015   4.274
   42        1.513   2.747   0.016   4.276
   43        1.518   2.746   0.012   4.275
   44        1.513   2.747   0.016   4.276
   45        1.514   2.743   0.015   4.272
   46        1.517   2.746   0.012   4.275
   47        1.514   2.743   0.015   4.272
   48        1.515   2.744   0.015   4.274
--------------------------------------------------
tot         65.134 100.204  76.089 241.427
 


--------------------------------------------------------------------------------------------------------



  FREE ENERGIE OF THE ION-ELECTRON SYSTEM (eV)
  ---------------------------------------------------
  free  energy   TOTEN  =      -119.96452173 eV

  energy  without entropy=     -119.96452173  energy(sigma->0) =     -119.96452173
 


--------------------------------------------------------------------------------------------------------




--------------------------------------------------------------------------------------------------------


 writing wavefunctions
     LOOP+:  cpu time  109.6962: real time  109.7774
    4ORBIT:  cpu time    0.0000: real time    0.0000
 


 total charge     
 
# of ion       s       p       d       tot
------------------------------------------
    1        0.238   0.147   9.323   9.708
    2        0.241   0.151   9.320   9.712
    3        0.241   0.151   9.320   9.712
    4        0.238   0.147   9.323   9.708
    5        0.253   0.158   9.312   9.723
    6        0.255   0.160   9.311   9.725
    7        0.241   0.151   9.320   9.712
    8        0.241   0.151   9.320   9.712
    9        1.835   1.397   0.139   3.371
   10        1.834   1.401   0.138   3.372
   11        1.833   1.401   0.138   3.372
   12        1.834   1.400   0.138   3.372
   13        1.834   1.400   0.138   3.372
   14        1.833   1.400   0.135   3.368
   15        1.835   1.397   0.139   3.371
   16        1.833   1.400   0.135   3.368
   17        1.518   2.742   0.013   4.273
   18        1.514   2.742   0.017   4.273
   19        1.518   2.742   0.012   4.273
   20        1.518   2.742   0.012   4.272
   21        1.518   2.742   0.012   4.272
   22        1.518   2.742   0.011   4.271
   23        1.514   2.742   0.017   4.273
   24        1.518   2.742   0.011   4.271
   25        1.513   2.747   0.016   4.276
   26        1.517   2.745   0.013   4.275
   27        1.513   2.747   0.016   4.276
   28        1.516   2.743   0.015   4.274
   29        1.516   2.743   0.015   4.274
   30        1.514   2.743   0.015   4.272
   31        1.517   2.745   0.013   4.275
   32        1.514   2.743   0.015   4.272
   33        1.518   2.742   0.012   4.272
   34        1.518   2.743   0.012   4.273
   35        1.514   2.742   0.017   4.273
   36        1.518   2.742   0.013   4.273
   37        1.518   2.742   0.011   4.271
   38        1.514   2.742   0.017   4.273
   39        1.518   2.742   0.011   4.271
   40        1.518   2.742   0.012   4.272
   41        1.515   2.744   0.015   4.274
   42        1.513   2.747   0.016   4.276
   43        1.518   2.746   0.012   4.275
   44        1.513   2.747   0.016   4.276
   45        1.514   2.743   0.015   4.272
   46        1.517   2.746   0.012   4.275
   47        1.514   2.743   0.015   4.272
   48        1.515   2.744   0.015   4.274
--------------------------------------------------
tot         65.134 100.204  76.089 241.427
 
 BZINTS: Fermi energy:    2.052433;  352.000000 electrons
         Band energy:-0.758932E+03;  BLOECHL correction:    0.000000

 total amount of memory used by VASP MPI-rank0  2782079. kBytes
=======================================================================

   base      :      30000. kBytes
   nonl-proj :     303764. kBytes
   fftplans  :      34720. kBytes
   grid      :      70000. kBytes
   one-center:        746. kBytes
   wavefun   :    2342849. kBytes
 
  
  
 General timing and accounting informations for this job:
 ========================================================
  
                  Total CPU time used (sec):      149.644
                            User time (sec):      144.582
                          System time (sec):        5.062
                         Elapsed time (sec):      151.166
  
                   Maximum memory used (kb):     4329720.
                   Average memory used (kb):           0.
  
                          Minor page faults:       423865
                          Major page faults:            0
                 Voluntary context switches:         2346
