 vasp.6.1.0 28Jan20 (build Jan 13 2021 21:44:47) complex                        
  
 executed on             LinuxIFC date 2021.09.12  19:31:00
 running on    9 total cores
 distrk:  each k-point on    1 cores,    9 groups
 distr:  one band on NCORE=   1 cores,    1 groups


--------------------------------------------------------------------------------------------------------


 INCAR:
 POTCAR:    PAW_PBE Ag 02Apr2005                  
 POTCAR:    PAW_PBE Bi 08Apr2002                  
 POTCAR:    PAW_PBE I 08Apr2002                   
 -----------------------------------------------------------------------------
|                                                                             |
|           W    W    AA    RRRRR   N    N  II  N    N   GGGG   !!!           |
|           W    W   A  A   R    R  NN   N  II  NN   N  G    G  !!!           |
|           W    W  A    A  R    R  N N  N  II  N N  N  G       !!!           |
|           W WW W  AAAAAA  RRRRR   N  N N  II  N  N N  G  GGG   !            |
|           WW  WW  A    A  R   R   N   NN  II  N   NN  G    G                |
|           W    W  A    A  R    R  N    N  II  N    N   GGGG   !!!           |
|                                                                             |
|     For optimal performance we recommend to set                             |
|       NCORE = 4 - approx SQRT(number of cores).                             |
|     NCORE specifies how many cores store one orbital (NPAR=cpu/NCORE).      |
|     This setting can greatly improve the performance of VASP for DFT.       |
|     The default, NCORE=1 might be grossly inefficient on modern             |
|     multi-core architectures or massively parallel machines. Do your        |
|     own testing!!!!                                                         |
|     Unfortunately you need to use the default for GW and RPA                |
|     calculations (for HF NCORE is supported but not extensively tested      |
|     yet).                                                                   |
|                                                                             |
 -----------------------------------------------------------------------------

 POTCAR:    PAW_PBE Ag 02Apr2005                  
   VRHFIN =Ag : s1 d10                                                                              
   LEXCH  = PE                                                                                      
   EATOM  =  1037.2675 eV,   76.2370 Ry                                                             
                                                                                                    
   TITEL  = PAW_PBE Ag 02Apr2005                                                                    
   LULTRA =        F    use ultrasoft PP ?                                                          
   IUNSCR =        1    unscreen: 0-lin 1-nonlin 2-no                                               
   RPACOR =    2.000    partial core radius                                                         
   POMASS =  107.868; ZVAL   =   11.000    mass and valenz                                          
   RCORE  =    2.500    outmost cutoff radius                                                       
   RWIGS  =    2.840; RWIGS  =    1.503    wigner-seitz radius (au A)                               
   ENMAX  =  249.844; ENMIN  =  187.383 eV                                                          
   ICORE  =        3    local potential                                                             
   LCOR   =        T    correct aug charges                                                         
   LPAW   =        T    paw PP                                                                      
   EAUG   =  412.496                                                                                
   DEXC   =    0.000                                                                                
   RMAX   =    2.560    core radius for proj-oper                                                   
   RAUG   =    1.300    factor for augmentation sphere                                              
   RDEP   =    2.576    radius for radial grids                                                     
   RDEPT  =    2.072    core radius for aug-charge                                                  
                                                                                                    
   Atomic configuration                                                                             
   12 entries                                                                                       
     n  l   j            E        occ.                                                              
     1  0  0.50    -25324.9161   2.0000                                                             
     2  0  0.50     -3728.5341   2.0000                                                             
     2  1  1.50     -3344.0404   6.0000                                                             
     3  0  0.50      -683.5581   2.0000                                                             
     3  1  1.50      -557.3225   6.0000                                                             
     3  2  2.50      -358.3853  10.0000                                                             
     4  0  0.50       -95.0341   2.0000                                                             
     4  1  1.50       -58.5511   6.0000                                                             
     4  2  2.50        -7.4440  10.0000                                                             
     5  0  0.50        -4.4045   1.0000                                                             
     5  1  0.50        -1.3606   0.0000                                                             
     4  3  2.50        -1.3606   0.0000                                                             
   Description                                                                                      
     l       E           TYP  RCUT    TYP  RCUT                                                     
     2     -7.4439781     23  2.400                                                                 
     2     -8.8045607     23  2.400                                                                 
     0     -4.4044681     23  2.400                                                                 
     0      1.9520038     23  2.400                                                                 
     1     -1.3605826     23  2.500                                                                 
     1     27.2116520     23  2.500                                                                 
     3     -4.0817478     23  2.400                                                                 
  local pseudopotential read in
  partial core-charges read in
  partial kinetic energy density read in
  atomic valenz-charges read in
  non local Contribution for L=           2  read in
    real space projection operators read in
  non local Contribution for L=           2  read in
    real space projection operators read in
  non local Contribution for L=           0  read in
    real space projection operators read in
  non local Contribution for L=           0  read in
    real space projection operators read in
  non local Contribution for L=           1  read in
    real space projection operators read in
  non local Contribution for L=           1  read in
    real space projection operators read in
    PAW grid and wavefunctions read in
 
   number of l-projection  operators is LMAX  =           6
   number of lm-projection operators is LMMAX =          18
 
 POTCAR:    PAW_PBE Bi 08Apr2002                  
   VRHFIN =Bi:                                                                                      
   LEXCH  = PE                                                                                      
   EATOM  =   150.8133 eV,   11.0845 Ry                                                             
                                                                                                    
   TITEL  = PAW_PBE Bi 08Apr2002                                                                    
   LULTRA =        F    use ultrasoft PP ?                                                          
   IUNSCR =        1    unscreen: 0-lin 1-nonlin 2-no                                               
   RPACOR =    2.200    partial core radius                                                         
   POMASS =  208.980; ZVAL   =    5.000    mass and valenz                                          
   RCORE  =    3.000    outmost cutoff radius                                                       
   RWIGS  =    3.090; RWIGS  =    1.635    wigner-seitz radius (au A)                               
   ENMAX  =  105.037; ENMIN  =   78.777 eV                                                          
   ICORE  =        3    local potential                                                             
   LCOR   =        T    correct aug charges                                                         
   LPAW   =        T    paw PP                                                                      
   EAUG   =  265.427                                                                                
   DEXC   =    0.000                                                                                
   RMAX   =    3.067    core radius for proj-oper                                                   
   RAUG   =    1.300    factor for augmentation sphere                                              
   RDEP   =    3.012    radius for radial grids                                                     
   RDEPT  =    2.604    core radius for aug-charge                                                  
                                                                                                    
   Atomic configuration                                                                             
   17 entries                                                                                       
     n  l   j            E        occ.                                                              
     1  0  0.50    -90639.6582   2.0000                                                             
     2  0  0.50    -16282.4667   2.0000                                                             
     2  1  1.50    -13922.8287   6.0000                                                             
     3  0  0.50     -3930.4763   2.0000                                                             
     3  1  1.50     -3256.7013   6.0000                                                             
     3  2  2.50     -2581.6169  10.0000                                                             
     4  0  0.50      -902.2614   2.0000                                                             
     4  1  1.50      -681.5915   6.0000                                                             
     4  2  2.50      -429.8249  10.0000                                                             
     4  3  3.50      -152.6004  14.0000                                                             
     5  0  0.50      -157.7156   2.0000                                                             
     5  1  1.50       -95.8054   6.0000                                                             
     5  2  2.50       -27.0806  10.0000                                                             
     6  0  0.50       -14.4732   2.0000                                                             
     6  1  1.50        -4.5702   3.0000                                                             
     6  2  2.50        -2.7212   0.0000                                                             
     5  3  2.50        -2.7212   0.0000                                                             
   Description                                                                                      
     l       E           TYP  RCUT    TYP  RCUT                                                     
     0    -14.4732299     23  3.000                                                                 
     0    -12.2452434     23  3.000                                                                 
     1     -4.5701666     23  3.000                                                                 
     1    -13.6058260     23  3.000                                                                 
     2     -2.7211652     23  3.000                                                                 
     3     -1.3605826      7  3.000                                                                 
  local pseudopotential read in
  partial core-charges read in
  partial kinetic energy density read in
  kinetic energy density of atom read in
  atomic valenz-charges read in
  non local Contribution for L=           0  read in
    real space projection operators read in
  non local Contribution for L=           0  read in
    real space projection operators read in
  non local Contribution for L=           1  read in
    real space projection operators read in
  non local Contribution for L=           1  read in
    real space projection operators read in
  non local Contribution for L=           2  read in
    real space projection operators read in
    PAW grid and wavefunctions read in
 
   number of l-projection  operators is LMAX  =           5
   number of lm-projection operators is LMMAX =          13
 
 POTCAR:    PAW_PBE I 08Apr2002                   
   VRHFIN =I : s2p5                                                                                 
   LEXCH  = PE                                                                                      
   EATOM  =   315.8678 eV,   23.2156 Ry                                                             
                                                                                                    
   TITEL  = PAW_PBE I 08Apr2002                                                                     
   LULTRA =        F    use ultrasoft PP ?                                                          
   IUNSCR =        1    unscreen: 0-lin 1-nonlin 2-no                                               
   RPACOR =    2.200    partial core radius                                                         
   POMASS =  126.904; ZVAL   =    7.000    mass and valenz                                          
   RCORE  =    2.300    outmost cutoff radius                                                       
   RWIGS  =    2.810; RWIGS  =    1.487    wigner-seitz radius (au A)                               
   ENMAX  =  175.647; ENMIN  =  131.735 eV                                                          
   ICORE  =        3    local potential                                                             
   LCOR   =        T    correct aug charges                                                         
   LPAW   =        T    paw PP                                                                      
   EAUG   =  370.139                                                                                
   DEXC   =    0.000                                                                                
   RMAX   =    2.359    core radius for proj-oper                                                   
   RAUG   =    1.300    factor for augmentation sphere                                              
   RDEP   =    2.392    radius for radial grids                                                     
   RDEPT  =    2.170    core radius for aug-charge                                                  
                                                                                                    
   Atomic configuration                                                                             
   13 entries                                                                                       
     n  l   j            E        occ.                                                              
     1  0  0.50    -32976.3739   2.0000                                                             
     2  0  0.50     -5094.5933   2.0000                                                             
     2  1  1.50     -4572.0131   6.0000                                                             
     3  0  0.50     -1028.2813   2.0000                                                             
     3  1  1.50      -859.0250   6.0000                                                             
     3  2  2.50      -605.7620  10.0000                                                             
     4  0  0.50      -180.5540   2.0000                                                             
     4  1  1.50      -127.5306   6.0000                                                             
     4  2  2.50       -50.2720  10.0000                                                             
     5  0  0.50       -17.4058   2.0000                                                             
     5  1  0.50        -7.0851   5.0000                                                             
     5  2  1.50        -7.0750   0.0000                                                             
     4  3  2.50        -7.0750   0.0000                                                             
   Description                                                                                      
     l       E           TYP  RCUT    TYP  RCUT                                                     
     0    -17.4058016     23  2.300                                                                 
     0    -18.7663842     23  2.300                                                                 
     1     -7.0850686     23  2.300                                                                 
     1     -4.2150896     23  2.300                                                                 
     2     -7.0750295     23  2.300                                                                 
     3     -1.3605826     23  2.300                                                                 
  local pseudopotential read in
  partial core-charges read in
  partial kinetic energy density read in
  atomic valenz-charges read in
  non local Contribution for L=           0  read in
    real space projection operators read in
  non local Contribution for L=           0  read in
    real space projection operators read in
  non local Contribution for L=           1  read in
    real space projection operators read in
  non local Contribution for L=           1  read in
    real space projection operators read in
  non local Contribution for L=           2  read in
    real space projection operators read in
    PAW grid and wavefunctions read in
 
   number of l-projection  operators is LMAX  =           5
   number of lm-projection operators is LMMAX =          13
 
 -----------------------------------------------------------------------------
|                                                                             |
|               ----> ADVICE to this user running VASP <----                  |
|                                                                             |
|     You have a (more or less) 'large supercell' and for larger cells it     |
|     might be more efficient to use real-space projection operators.         |
|     Therefore, try LREAL= Auto in the INCAR file.                           |
|     Mind: For very accurate calculation, you might also keep the            |
|     reciprocal projection scheme (i.e. LREAL=.FALSE.).                      |
|                                                                             |
 -----------------------------------------------------------------------------

  PAW_PBE Ag 02Apr2005                  :
 energy of atom  1       EATOM=-1037.2675
 kinetic energy error for atom=    0.0686 (will be added to EATOM!!)
  PAW_PBE Bi 08Apr2002                  :
 energy of atom  2       EATOM= -150.8133
 kinetic energy error for atom=    0.0004 (will be added to EATOM!!)
  PAW_PBE I 08Apr2002                   :
 energy of atom  3       EATOM= -315.8678
 kinetic energy error for atom=    0.0044 (will be added to EATOM!!)
 
 
 POSCAR: Generation Seed Number
  positions in direct lattice
  velocities in cartesian coordinates
 exchange correlation table for  LEXCH =        8
   RHO(1)=    0.500       N(1)  =     2000
   RHO(2)=  100.500       N(2)  =     4000
 


--------------------------------------------------------------------------------------------------------


 ion  position               nearest neighbor table
   1  0.025  1.000  0.975-  27 2.95  25 2.96  34 2.97  17 2.97
   2  0.255  0.225  0.988-  42 2.94  17 2.98  29 3.06  25 3.12  41 3.21  19 3.59
   3  0.012  0.775  0.745-  44 2.94  34 2.98  28 3.07  27 3.14  48 3.19  36 3.58
   4  0.725  0.500  0.275-  45 2.95  47 2.95  39 2.97  24 2.97
   5  0.494  0.725  0.260-  32 2.94  39 2.98  43 3.07  31 3.15  47 3.16
   6  0.499  0.251  0.747-  42 3.02  30 3.03  46 3.06  29 3.09  40 3.26  38 3.28
   7  0.741  0.275  0.506-  30 2.94  24 2.98  46 3.07  26 3.14  45 3.17  22 3.59
   8  0.254  0.748  0.502-  44 3.02  32 3.03  43 3.06  28 3.10  20 3.24  18 3.30
   9  0.498  0.496  0.002-  29 3.03  39 3.06  19 3.13  23 3.14  31 3.20  40 3.20
  10  0.752  0.750  0.003-  47 3.07  27 3.07  21 3.14  23 3.14  48 3.18  31 3.18
  11  0.998  0.250  0.248-  45 3.07  25 3.07  33 3.14  35 3.14  41 3.18  26 3.18
  12  0.999  0.504  0.502-  28 3.03  24 3.06  36 3.13  35 3.14  26 3.20  20 3.20
  13  0.252  0.997  0.250-  43 3.04  17 3.06  37 3.13  33 3.14  41 3.19  18 3.20
  14  0.500  1.000  0.500-  32 3.11  18 3.11  30 3.11  38 3.12  37 3.14  22 3.14
  15  0.751  0.003  0.749-  46 3.04  34 3.06  22 3.13  21 3.14  48 3.19  38 3.20
  16  0.251  0.500  0.750-  42 3.11  44 3.11  40 3.11  20 3.11  19 3.14  36 3.14
  17  0.256  0.992  0.010-   1 2.97   2 2.98  13 3.06
  18  0.256  0.007  0.501-  14 3.11  13 3.20   8 3.30
  19  0.253  0.507  0.996-   9 3.13  16 3.14   2 3.59
  20  0.250  0.493  0.505-  16 3.11  12 3.20   8 3.24
  21  0.740  0.996  0.996-  10 3.14  15 3.14
  22  0.747  0.993  0.504-  15 3.13  14 3.14   7 3.59
  23  0.745  0.504  0.990-  10 3.14   9 3.14
  24  0.759  0.508  0.506-   4 2.97   7 2.98  12 3.06
  25  0.010  0.229  0.008-   1 2.96  11 3.07   2 3.12
  26  0.986  0.253  0.498-   7 3.14  11 3.18  12 3.20
  27  0.993  0.771  0.991-   1 2.95  10 3.07   3 3.14
  28  0.010  0.741  0.507-  12 3.03   3 3.07   8 3.10
  29  0.493  0.258  0.990-   9 3.03   2 3.06   6 3.09
  30  0.512  0.244  0.509-   7 2.94   6 3.03  14 3.11
  31  0.502  0.747  0.014-   5 3.15  10 3.18   9 3.20
  32  0.491  0.756  0.489-   5 2.94   8 3.03  14 3.11
  33  0.005  0.004  0.261-  11 3.14  13 3.14
  34  0.991  0.008  0.745-   1 2.97   3 2.98  15 3.06
  35  0.011  0.496  0.256-  11 3.14  12 3.14
  36  0.004  0.493  0.747-  12 3.13  16 3.14   3 3.58
  37  0.497  0.007  0.254-  13 3.13  14 3.14
  38  0.500  0.993  0.745-  14 3.12  15 3.20   6 3.28
  39  0.494  0.492  0.242-   4 2.97   5 2.98   9 3.06
  40  0.495  0.507  0.750-  16 3.11   9 3.20   6 3.26
  41  0.248  0.247  0.239-  11 3.18  13 3.19   2 3.21
  42  0.262  0.256  0.759-   2 2.94   6 3.02  16 3.11
  43  0.255  0.759  0.262-  13 3.04   8 3.06   5 3.07
  44  0.241  0.744  0.739-   3 2.94   8 3.02  16 3.11
  45  0.758  0.271  0.258-   4 2.95  11 3.07   7 3.17
  46  0.739  0.241  0.746-  15 3.04   6 3.06   7 3.07
  47  0.742  0.729  0.243-   4 2.95  10 3.07   5 3.16
  48  0.762  0.753  0.753-  10 3.18   3 3.19  15 3.19
 
 -----------------------------------------------------------------------------
|                                                                             |
|           W    W    AA    RRRRR   N    N  II  N    N   GGGG   !!!           |
|           W    W   A  A   R    R  NN   N  II  NN   N  G    G  !!!           |
|           W    W  A    A  R    R  N N  N  II  N N  N  G       !!!           |
|           W WW W  AAAAAA  RRRRR   N  N N  II  N  N N  G  GGG   !            |
|           WW  WW  A    A  R   R   N   NN  II  N   NN  G    G                |
|           W    W  A    A  R    R  N    N  II  N    N   GGGG   !!!           |
|                                                                             |
|     The determination of the symmetry of your systems shows a strong        |
|     dependence on the tolerance parameter SYMPREC. This is often the        |
|     result of "noise" in the structural parameters (lattice vectors         |
|     and/or ionic positions). Set NWRITE=3 for more details.                 |
|                                                                             |
 -----------------------------------------------------------------------------

  LATTYP: Found a base centered monoclinic cell.
 ALAT       =    59.7000698505
 B/A-ratio  =     0.3014330157
 C/A-ratio  =     0.6395875624
 COS(beta)  =    -0.9949375359
  
  Lattice vectors:
  
 A1 = (  12.7292258584,  12.7306874227,  25.4535840497)
 A2 = (  25.4537481778,  12.7307626289,  12.7285242627)
 A3 = ( -25.4549021117, -12.7316183620, -25.4544216146)


Analysis of symmetry for initial positions (statically):
=====================================================================
 Subroutine PRICEL returns:
 Original cell was already a primitive cell.
 

 Routine SETGRP: Setting up the symmetry group for a 
 base centered monoclinic supercell.


 Subroutine GETGRP returns: Found  1 space group operations
 (whereof  1 operations were pure point group operations)
 out of a pool of  4 trial point group operations.


The static configuration has the point symmetry C_1 .


Analysis of symmetry for dynamics (positions and initial velocities):
=====================================================================
 Subroutine PRICEL returns:
 Original cell was already a primitive cell.
 

 Routine SETGRP: Setting up the symmetry group for a 
 base centered monoclinic supercell.


 Subroutine GETGRP returns: Found  1 space group operations
 (whereof  1 operations were pure point group operations)
 out of a pool of  4 trial point group operations.


The dynamic configuration has the point symmetry C_1 .


 Subroutine INISYM returns: Found  1 space group operations
 (whereof  1 operations are pure point group operations),
 and found     1 'primitive' translations


----------------------------------------------------------------------------------------

                                     Primitive cell                                     

  volume of cell :    2061.2515

  direct lattice vectors                    reciprocal lattice vectors
    12.725676253  0.000930939  0.000837565     0.078581287 -0.000007666 -0.000007125
     0.001241737 12.728045017  0.000951781    -0.000005747  0.078566662 -0.000005283
     0.001153934  0.000855733 12.725897352    -0.000005171 -0.000005876  0.078579921

  length of vectors
    12.725676315 12.728045113 12.725897433     0.078581287  0.078566662  0.078579922

  position of ions in fractional coordinates (direct lattice)
     0.025243818  0.999781913  0.975329484
     0.255063588  0.224967648  0.987829492
     0.011751318  0.774662751  0.745212112
     0.724879535  0.499852766  0.275403714
     0.494253726  0.724989187  0.260487888
     0.498669893  0.250968878  0.747275513
     0.741007856  0.274671395  0.506404480
     0.253530745  0.747839731  0.502030257
     0.498253145  0.496257927  0.001705275
     0.752325209  0.749662584  0.002646638
     0.998266107  0.250133103  0.248350508
     0.998840335  0.503819183  0.502083923
     0.251610140  0.997018717  0.250136153
     0.500376830  0.999954361  0.500364334
     0.750748901  0.002939523  0.749117305
     0.250510847  0.499965691  0.750009629
     0.255961025  0.991985359  0.009695727
     0.255745649  0.006904376  0.501049705
     0.252913368  0.506587188  0.996461028
     0.250395402  0.493490326  0.505321787
     0.740034885  0.995752845  0.995642574
     0.746898008  0.993001903  0.503781722
     0.744810233  0.503584381  0.989659100
     0.758765014  0.508313062  0.506272599
     0.010484751  0.229324710  0.007939693
     0.986365780  0.252545209  0.498261013
     0.992665114  0.770519564  0.991121267
     0.010253269  0.741470191  0.506570083
     0.493289714  0.258433005  0.990272833
     0.512096845  0.244212727  0.509435582
     0.502375003  0.747323027  0.014116966
     0.491317588  0.755694160  0.489339276
     0.005097858  0.004071987  0.260727481
     0.991136781  0.007927590  0.744734182
     0.011185557  0.496217235  0.255641620
     0.004039472  0.493211941  0.747482802
     0.496999126  0.006797900  0.253935814
     0.499769594  0.992981789  0.745081770
     0.494091320  0.491566124  0.241852871
     0.495164560  0.506706690  0.750323470
     0.247975612  0.247114711  0.239238576
     0.261650611  0.255778536  0.759043217
     0.255400312  0.758581365  0.262212437
     0.240606545  0.744213000  0.739054977
     0.758073968  0.271293419  0.258121670
     0.738585121  0.241225833  0.745667653
     0.742052081  0.728552622  0.242756631
     0.762421381  0.752612439  0.752769038

  ion indices of the primitive-cell ions
   primitive index   ion index
                 1           1
                 2           2
                 3           3
                 4           4
                 5           5
                 6           6
                 7           7
                 8           8
                 9           9
                10          10
                11          11
                12          12
                13          13
                14          14
                15          15
                16          16
                17          17
                18          18
                19          19
                20          20
                21          21
                22          22
                23          23
                24          24
                25          25
                26          26
                27          27
                28          28
                29          29
                30          30
                31          31
                32          32
                33          33
                34          34
                35          35
                36          36
                37          37
                38          38
                39          39
                40          40
                41          41
                42          42
                43          43
                44          44
                45          45
                46          46
                47          47
                48          48

----------------------------------------------------------------------------------------

 
 
 KPOINTS: agbii                                   

Automatic generation of k-mesh.
Space group operators:
 irot       det(A)        alpha          n_x          n_y          n_z        tau_x        tau_y        tau_z
    1     1.000000     0.000001     1.000000     0.000000     0.000000     0.000000     0.000000     0.000000
 TETIRR: Found    192 inequivalent tetrahedra from      384
 
 Subroutine IBZKPT returns following result:
 ===========================================
 
 Found     36 irreducible k-points:
 
 Following reciprocal coordinates:
            Coordinates               Weight
  0.000000  0.000000  0.000000      1.000000
  0.250000  0.000000 -0.000000      2.000000
  0.000000 -0.000000 -0.250000      2.000000
  0.500000  0.000000  0.000000      1.000000
 -0.000000  0.000000  0.500000      1.000000
 -0.000000  0.250000 -0.000000      2.000000
  0.250000  0.250000 -0.000000      2.000000
  0.000000 -0.250000 -0.250000      2.000000
  0.500000  0.250000  0.000000      2.000000
 -0.000000 -0.250000  0.500000      2.000000
 -0.250000  0.250000  0.000000      2.000000
 -0.000000 -0.250000  0.250000      2.000000
 -0.000000  0.500000 -0.000000      1.000000
  0.250000  0.500000  0.000000      2.000000
  0.000000  0.500000 -0.250000      2.000000
  0.500000  0.500000  0.000000      1.000000
  0.000000  0.500000  0.500000      1.000000
  0.250000  0.000000  0.250000      2.000000
  0.500000  0.000000  0.250000      2.000000
 -0.250000 -0.000000  0.500000      2.000000
 -0.250000 -0.000000  0.250000      2.000000
  0.250000  0.250000  0.250000      2.000000
  0.500000  0.250000  0.250000      2.000000
 -0.250000 -0.250000  0.500000      2.000000
 -0.250000  0.250000  0.250000      2.000000
 -0.250000 -0.250000  0.250000      2.000000
  0.250000  0.500000  0.250000      2.000000
  0.500000  0.500000  0.250000      2.000000
 -0.250000  0.500000  0.500000      2.000000
 -0.250000  0.500000  0.250000      2.000000
  0.250000 -0.250000  0.250000      2.000000
  0.500000 -0.250000  0.250000      2.000000
 -0.250000  0.250000  0.500000      2.000000
  0.500000  0.000000  0.500000      1.000000
  0.500000  0.250000  0.500000      2.000000
  0.500000  0.500000  0.500000      1.000000
 
 Following cartesian coordinates:
            Coordinates               Weight
  0.000000  0.000000  0.000000      1.000000
  0.019645 -0.000002 -0.000002      2.000000
  0.000001  0.000001 -0.019645      2.000000
  0.039291 -0.000004 -0.000004      1.000000
 -0.000003 -0.000003  0.039290      1.000000
 -0.000001  0.019642 -0.000001      2.000000
  0.019644  0.019640 -0.000003      2.000000
  0.000003 -0.019640 -0.019644      2.000000
  0.039289  0.019638 -0.000005      2.000000
 -0.000001 -0.019645  0.039291      2.000000
 -0.019647  0.019644  0.000000      2.000000
  0.000000 -0.019643  0.019646      2.000000
 -0.000003  0.039283 -0.000003      1.000000
  0.019642  0.039281 -0.000004      2.000000
 -0.000002  0.039285 -0.019648      2.000000
  0.039288  0.039279 -0.000006      1.000000
 -0.000005  0.039280  0.039287      1.000000
  0.019644 -0.000003  0.019643      2.000000
  0.039289 -0.000005  0.019641      2.000000
 -0.019648 -0.000001  0.039292      2.000000
 -0.019647  0.000000  0.019647      2.000000
  0.019643  0.019638  0.019642      2.000000
  0.039288  0.019636  0.019640      2.000000
 -0.019646 -0.019643  0.039293      2.000000
 -0.019648  0.019642  0.019645      2.000000
 -0.019645 -0.019641  0.019648      2.000000
  0.019641  0.039280  0.019641      2.000000
  0.039286  0.039278  0.019639      2.000000
 -0.019651  0.039282  0.039289      2.000000
 -0.019649  0.039284  0.019644      2.000000
  0.019645 -0.019645  0.019645      2.000000
  0.039291 -0.019647  0.019643      2.000000
 -0.019649  0.019641  0.039290      2.000000
  0.039288 -0.000007  0.039286      1.000000
  0.039287  0.019635  0.039285      2.000000
  0.039285  0.039277  0.039284      1.000000
 


--------------------------------------------------------------------------------------------------------




 Dimension of arrays:
   k-points           NKPTS =     36   k-points in BZ     NKDIM =     36   number of bands    NBANDS=    211
   number of dos      NEDOS =   3000   number of ions     NIONS =     48
   non local maximal  LDIM  =      6   non local SUM 2l+1 LMDIM =     18
   total plane-waves  NPLWV = 125000
   max r-space proj   IRMAX =      1   max aug-charges    IRDMAX=   5976
   dimension x,y,z NGX =    50 NGY =   50 NGZ =   50
   dimension x,y,z NGXF=   100 NGYF=  100 NGZF=  100
   support grid    NGXF=   100 NGYF=  100 NGZF=  100
   ions per type =               8   8  32
   NGX,Y,Z   is equivalent  to a cutoff of   6.53,  6.53,  6.53 a.u.
   NGXF,Y,Z  is equivalent  to a cutoff of  13.06, 13.06, 13.06 a.u.

 SYSTEM =  unknown system                          
 POSCAR =  Generation Seed Number                  

 Startparameter for this run:
   NWRITE =      2    write-flag & timer
   PREC   = normal    normal or accurate (medium, high low for compatibility)
   ISTART =      1    job   : 0-new  1-cont  2-samecut
   ICHARG =      1    charge: 1-file 2-atom 10-const
   ISPIN  =      1    spin polarized calculation?
   LNONCOLLINEAR =      F non collinear calculations
   LSORBIT =      F    spin-orbit coupling
   INIWAV =      1    electr: 0-lowe 1-rand  2-diag
   LASPH  =      F    aspherical Exc in radial PAW
   METAGGA=      F    non-selfconsistent MetaGGA calc.

 Electronic Relaxation 1
   ENCUT  =  250.0 eV  18.37 Ry    4.29 a.u.  16.41 16.41 16.41*2*pi/ulx,y,z
   ENINI  =  250.0     initial cutoff
   ENAUG  =  412.5 eV  augmentation charge cutoff
   NELM   =     60;   NELMIN=  2; NELMDL=  0     # of ELM steps 
   EDIFF  = 0.1E-05   stopping-criterion for ELM
   LREAL  =      F    real-space projection
   NLSPLINE    = F    spline interpolate recip. space projectors
   LCOMPAT=      F    compatible to vasp.4.4
   GGA_COMPAT  = T    GGA compatible to vasp.4.4-vasp.4.6
   LMAXPAW     = -100 max onsite density
   LMAXMIX     =    4 max onsite mixed and CHGCAR
   VOSKOWN=      0    Vosko Wilk Nusair interpolation
   ROPT   =    0.00000   0.00000   0.00000
 Ionic relaxation
   EDIFFG = -.1E-01   stopping-criterion for IOM
   NSW    =      0    number of steps for IOM
   NBLOCK =      1;   KBLOCK =      1    inner block; outer block 
   IBRION =     -1    ionic relax: 0-MD 1-quasi-New 2-CG
   NFREE  =      0    steps in history (QN), initial steepest desc. (CG)
   ISIF   =     -1    stress and relaxation
   IWAVPR =     10    prediction:  0-non 1-charg 2-wave 3-comb
   ISYM   =      2    0-nonsym 1-usesym 2-fastsym
   LCORR  =      T    Harris-Foulkes like correction to forces

   POTIM  = 0.5000    time-step for ionic-motion
   TEIN   =    0.0    initial temperature
   TEBEG  =    0.0;   TEEND  =   0.0 temperature during run
   SMASS  =  -3.00    Nose mass-parameter (am)
   estimated Nose-frequenzy (Omega)   =  0.10E-29 period in steps = 0.13E+47 mass=  -0.370E-26a.u.
   SCALEE = 1.0000    scale energy and forces
   NPACO  =    256;   APACO  = 16.0  distance and # of slots for P.C.
   PSTRESS=    0.0 pullay stress

  Mass of Ions in am
   POMASS = 107.87208.98126.90
  Ionic Valenz
   ZVAL   =  11.00  5.00  7.00
  Atomic Wigner-Seitz radii
   RWIGS  =  -1.00 -1.00 -1.00
  virtual crystal weights 
   VCA    =   1.00  1.00  1.00
   NELECT =     352.0000    total number of electrons
   NUPDOWN=      -1.0000    fix difference up-down

 DOS related values:
   EMIN   =  10.00;   EMAX   =-10.00  energy-range for DOS
   EFERMI =   0.00
   ISMEAR =    -5;   SIGMA  =   0.20  broadening in eV -4-tet -1-fermi 0-gaus

 Electronic relaxation 2 (details)
   IALGO  =     38    algorithm
   LDIAG  =      T    sub-space diagonalisation (order eigenvalues)
   LSUBROT=      F    optimize rotation matrix (better conditioning)
   TURBO    =      0    0=normal 1=particle mesh
   IRESTART =      0    0=no restart 2=restart with 2 vectors
   NREBOOT  =      0    no. of reboots
   NMIN     =      0    reboot dimension
   EREF     =   0.00    reference energy to select bands
   IMIX   =      4    mixing-type and parameters
     AMIX     =   0.40;   BMIX     =  1.00
     AMIX_MAG =   1.60;   BMIX_MAG =  1.00
     AMIN     =   0.10
     WC   =   100.;   INIMIX=   1;  MIXPRE=   1;  MAXMIX= -45

 Intra band minimization:
   WEIMIN = 0.0000     energy-eigenvalue tresh-hold
   EBREAK =  0.12E-08  absolut break condition
   DEPER  =   0.30     relativ break condition  

   TIME   =   0.40     timestep for ELM

  volume/ion in A,a.u.               =      42.94       289.79
  Fermi-wavevector in a.u.,A,eV,Ry     =   0.908264  1.716370 11.224035  0.824943
  Thomas-Fermi vector in A             =   2.032169
 
 Write flags
   LWAVE        =      T    write WAVECAR
   LDOWNSAMPLE  =      F    k-point downsampling of WAVECAR
   LCHARG       =      T    write CHGCAR
   LVTOT        =      F    write LOCPOT, total local potential
   LVHAR        =      F    write LOCPOT, Hartree potential only
   LELF         =      F    write electronic localiz. function (ELF)
   LORBIT       =     10    0 simple, 1 ext, 2 COOP (PROOUT), +10 PAW based schemes


 Dipole corrections
   LMONO  =      F    monopole corrections only (constant potential shift)
   LDIPOL =      F    correct potential (dipole corrections)
   IDIPOL =      0    1-x, 2-y, 3-z, 4-all directions 
   EPSILON=  1.0000000 bulk dielectric constant

 Exchange correlation treatment:
   GGA     =    --    GGA type
   LEXCH   =     8    internal setting for exchange type
   VOSKOWN=      0    Vosko Wilk Nusair interpolation
   LHFCALC =     F    Hartree Fock is set to
   LHFONE  =     F    Hartree Fock one center treatment
   AEXX    =    0.0000 exact exchange contribution

 Linear response parameters
   LEPSILON=     F    determine dielectric tensor
   LRPA    =     F    only Hartree local field effects (RPA)
   LNABLA  =     F    use nabla operator in PAW spheres
   LVEL    =     F    velocity operator in full k-point grid
   LINTERFAST=   F  fast interpolation
   KINTER  =     0    interpolate to denser k-point grid
   CSHIFT  =0.1000    complex shift for real part using Kramers Kronig
   OMEGAMAX=  -1.0    maximum frequency
   DEG_THRESHOLD= 0.2000000E-02 threshold for treating states as degnerate
   RTIME   =   -0.100 relaxation time in fs
  (WPLASMAI=    0.000 imaginary part of plasma frequency in eV, 0.658/RTIME)
   DFIELD  = 0.0000000 0.0000000 0.0000000 field for delta impulse in time
 
 Orbital magnetization related:
   ORBITALMAG=     F  switch on orbital magnetization
   LCHIMAG   =     F  perturbation theory with respect to B field
   DQ        =  0.001000  dq finite difference perturbation B field
   LLRAUG    =     F  two centre corrections for induced B field



--------------------------------------------------------------------------------------------------------


 Static calculation
 charge density and potential will be updated during run
 non-spin polarized calculation
 Variant of blocked Davidson
 Davidson routine will perform the subspace rotation
 perform sub-space diagonalisation
    after iterative eigenvector-optimisation
 modified Broyden-mixing scheme, WC =      100.0
 initial mixing is a Kerker type mixing with AMIX =  0.4000 and BMIX =      1.0000
 Hartree-type preconditioning will be used
 using additional bands           35
 reciprocal scheme for non local part
 use partial core corrections
 calculate Harris-corrections to forces 
   (improved forces if not selfconsistent)
 use gradient corrections 
 use of overlap-Matrix (Vanderbilt PP)
 Fermi weights with tetrahedron method with Bloechl corrections


--------------------------------------------------------------------------------------------------------


  energy-cutoff  :      250.00
  volume of cell :     2061.25
      direct lattice vectors                 reciprocal lattice vectors
    12.725676253  0.000930939  0.000837565     0.078581287 -0.000007666 -0.000007125
     0.001241737 12.728045017  0.000951781    -0.000005747  0.078566662 -0.000005283
     0.001153934  0.000855733 12.725897352    -0.000005171 -0.000005876  0.078579921

  length of vectors
    12.725676315 12.728045113 12.725897433     0.078581287  0.078566662  0.078579922


 
 old parameters found on file WAVECAR:
  energy-cutoff  :      250.00
  volume of cell :     2061.25
      direct lattice vectors                 reciprocal lattice vectors
    12.725676253  0.000930939  0.000837565     0.078581287 -0.000007666 -0.000007125
     0.001241737 12.728045017  0.000951781    -0.000005747  0.078566662 -0.000005283
     0.001153934  0.000855733 12.725897352    -0.000005171 -0.000005876  0.078579921

  length of vectors

 
 k-points in units of 2pi/SCALE and weight: agbii                                   
   0.00000000  0.00000000  0.00000000       0.016
   0.01964532 -0.00000192 -0.00000178       0.031
   0.00000129  0.00000147 -0.01964498       0.031
   0.03929064 -0.00000383 -0.00000356       0.016
  -0.00000259 -0.00000294  0.03928996       0.016
  -0.00000144  0.01964167 -0.00000132       0.031
   0.01964388  0.01963975 -0.00000310       0.031
   0.00000273 -0.01964020 -0.01964366       0.031
   0.03928921  0.01963783 -0.00000488       0.031
  -0.00000115 -0.01964460  0.03929128       0.031
  -0.01964676  0.01964358  0.00000046       0.031
   0.00000014 -0.01964313  0.01964630       0.031
  -0.00000287  0.03928333 -0.00000264       0.016
   0.01964245  0.03928141 -0.00000442       0.031
  -0.00000158  0.03928480 -0.01964762       0.031
   0.03928777  0.03927950 -0.00000620       0.016
  -0.00000546  0.03928039  0.03928732       0.016
   0.01964403 -0.00000339  0.01964320       0.031
   0.03928935 -0.00000530  0.01964142       0.031
  -0.01964791 -0.00000102  0.03929174       0.031
  -0.01964661  0.00000045  0.01964676       0.031
   0.01964259  0.01963828  0.01964188       0.031
   0.03928791  0.01963636  0.01964010       0.031
  -0.01964647 -0.01964269  0.03929306       0.031
  -0.01964805  0.01964211  0.01964544       0.031
  -0.01964518 -0.01964122  0.01964808       0.031
   0.01964116  0.03927995  0.01964056       0.031
   0.03928648  0.03927803  0.01963878       0.031
  -0.01965078  0.03928231  0.03928910       0.031
  -0.01964949  0.03928378  0.01964412       0.031
   0.01964547 -0.01964505  0.01964452       0.031
   0.03929079 -0.01964697  0.01964274       0.031
  -0.01964934  0.01964064  0.03929042       0.031
   0.03928806 -0.00000677  0.03928640       0.016
   0.03928662  0.01963489  0.03928508       0.031
   0.03928518  0.03927656  0.03928376       0.016
 
 k-points in reciprocal lattice and weights: agbii                                   
   0.00000000  0.00000000  0.00000000       0.016
   0.25000000  0.00000000 -0.00000000       0.031
   0.00000000 -0.00000000 -0.25000000       0.031
   0.50000000  0.00000000  0.00000000       0.016
  -0.00000000  0.00000000  0.50000000       0.016
  -0.00000000  0.25000000 -0.00000000       0.031
   0.25000000  0.25000000 -0.00000000       0.031
   0.00000000 -0.25000000 -0.25000000       0.031
   0.50000000  0.25000000  0.00000000       0.031
  -0.00000000 -0.25000000  0.50000000       0.031
  -0.25000000  0.25000000  0.00000000       0.031
  -0.00000000 -0.25000000  0.25000000       0.031
  -0.00000000  0.50000000 -0.00000000       0.016
   0.25000000  0.50000000  0.00000000       0.031
   0.00000000  0.50000000 -0.25000000       0.031
   0.50000000  0.50000000  0.00000000       0.016
   0.00000000  0.50000000  0.50000000       0.016
   0.25000000  0.00000000  0.25000000       0.031
   0.50000000  0.00000000  0.25000000       0.031
  -0.25000000 -0.00000000  0.50000000       0.031
  -0.25000000 -0.00000000  0.25000000       0.031
   0.25000000  0.25000000  0.25000000       0.031
   0.50000000  0.25000000  0.25000000       0.031
  -0.25000000 -0.25000000  0.50000000       0.031
  -0.25000000  0.25000000  0.25000000       0.031
  -0.25000000 -0.25000000  0.25000000       0.031
   0.25000000  0.50000000  0.25000000       0.031
   0.50000000  0.50000000  0.25000000       0.031
  -0.25000000  0.50000000  0.50000000       0.031
  -0.25000000  0.50000000  0.25000000       0.031
   0.25000000 -0.25000000  0.25000000       0.031
   0.50000000 -0.25000000  0.25000000       0.031
  -0.25000000  0.25000000  0.50000000       0.031
   0.50000000  0.00000000  0.50000000       0.016
   0.50000000  0.25000000  0.50000000       0.031
   0.50000000  0.50000000  0.50000000       0.016
 
 position of ions in fractional coordinates (direct lattice) 
   0.02524382  0.99978191  0.97532948
   0.25506359  0.22496765  0.98782949
   0.01175132  0.77466275  0.74521211
   0.72487954  0.49985277  0.27540371
   0.49425373  0.72498919  0.26048789
   0.49866989  0.25096888  0.74727551
   0.74100786  0.27467139  0.50640448
   0.25353075  0.74783973  0.50203026
   0.49825314  0.49625793  0.00170527
   0.75232521  0.74966258  0.00264664
   0.99826611  0.25013310  0.24835051
   0.99884033  0.50381918  0.50208392
   0.25161014  0.99701872  0.25013615
   0.50037683  0.99995436  0.50036433
   0.75074890  0.00293952  0.74911731
   0.25051085  0.49996569  0.75000963
   0.25596102  0.99198536  0.00969573
   0.25574565  0.00690438  0.50104971
   0.25291337  0.50658719  0.99646103
   0.25039540  0.49349033  0.50532179
   0.74003489  0.99575284  0.99564257
   0.74689801  0.99300190  0.50378172
   0.74481023  0.50358438  0.98965910
   0.75876501  0.50831306  0.50627260
   0.01048475  0.22932471  0.00793969
   0.98636578  0.25254521  0.49826101
   0.99266511  0.77051956  0.99112127
   0.01025327  0.74147019  0.50657008
   0.49328971  0.25843300  0.99027283
   0.51209685  0.24421273  0.50943558
   0.50237500  0.74732303  0.01411697
   0.49131759  0.75569416  0.48933928
   0.00509786  0.00407199  0.26072748
   0.99113678  0.00792759  0.74473418
   0.01118556  0.49621724  0.25564162
   0.00403947  0.49321194  0.74748280
   0.49699913  0.00679790  0.25393581
   0.49976959  0.99298179  0.74508177
   0.49409132  0.49156612  0.24185287
   0.49516456  0.50670669  0.75032347
   0.24797561  0.24711471  0.23923858
   0.26165061  0.25577854  0.75904322
   0.25540031  0.75858136  0.26221244
   0.24060654  0.74421300  0.73905498
   0.75807397  0.27129342  0.25812167
   0.73858512  0.24122583  0.74566765
   0.74205208  0.72855262  0.24275663
   0.76242138  0.75261244  0.75276904
 
 position of ions in cartesian coordinates  (Angst):
   0.32361159 12.72612732 12.41291561
   3.24727588  2.86448112 12.57144446
   0.15136532  9.86059101  9.48424000
   9.22552077  6.36305900  3.50584228
   6.29091373  9.22837804  3.31604612
   6.34708556  3.19544687  9.51040801
   9.43075150  3.49715306  6.44533350
   3.22785811  9.51920339  6.38970964
   6.34122640  6.31685854  0.02259080
   9.57478098  9.54244176  0.03502448
  12.70420847  3.18484724  3.16155726
  12.71212371  6.41399275  6.39078458
   3.20343586 12.69054739  3.18436669
   6.36945261 12.72835812  6.36895599
   9.55465554  0.03875432  9.53382153
   3.18940622  6.36446084  9.54523122
   3.25852011 12.62628089  0.12454537
   3.25512308  0.08854606  6.37652789
   3.22027254  6.44895269 12.68155475
   3.18764672  6.28183260  6.43135261
   9.41982974 12.67552796 12.67201277
   9.50659662 12.64009934  6.41264518
   9.47998121  6.41118493 12.59540325
   9.65701331  6.47097113  6.44389245
   0.13371947  2.91887179  0.10126677
  12.55306014  3.21575142  6.34188502
  12.63443534  9.80897995 12.61447229
   0.13198505  9.43790900  6.44727318
   6.27890882  3.29065355 12.60276955
   6.51766977  3.10926325  6.48368627
   6.39400591  9.51244090  0.18078312
   6.25385160  9.61938542  6.22841216
   0.06517960  0.05205629  3.31799931
  12.61375501  0.10246270  9.47824844
   0.14325494  6.31610448  3.25375068
   0.05288000  6.27826720  9.51286222
   6.32495144  0.08720395  3.23198384
   6.36199885 12.63981976  9.48319781
   6.28853565  6.25734269  3.07867650
   6.30279890  6.45048861  9.54943647
   3.15624028  3.14572275  3.04496846
   3.33087446  3.25645384  9.65996866
   3.25138622  9.65571990  3.33782448
   3.06365793  9.47323299  9.40604763
   9.64763862  3.45396146  3.28572302
   9.40015513  3.07165893  9.49013822
   9.44429934  9.27394912  3.09061091
   9.70413086  9.58063894  9.58101641
 


--------------------------------------------------------------------------------------------------------


 k-point   1 :   0.0000 0.0000 0.0000  plane waves:   18613
 k-point   2 :   0.2500 0.0000-0.0000  plane waves:   18533
 k-point   3 :   0.0000-0.0000-0.2500  plane waves:   18533
 k-point   4 :   0.5000 0.0000 0.0000  plane waves:   18482
 k-point   5 :  -0.0000 0.0000 0.5000  plane waves:   18482
 k-point   6 :  -0.0000 0.2500-0.0000  plane waves:   18533
 k-point   7 :   0.2500 0.2500-0.0000  plane waves:   18509
 k-point   8 :   0.0000-0.2500-0.2500  plane waves:   18509
 k-point   9 :   0.5000 0.2500 0.0000  plane waves:   18506
 k-point  10 :  -0.0000-0.2500 0.5000  plane waves:   18506
 k-point  11 :  -0.2500 0.2500 0.0000  plane waves:   18509
 k-point  12 :  -0.0000-0.2500 0.2500  plane waves:   18508
 k-point  13 :  -0.0000 0.5000-0.0000  plane waves:   18480
 k-point  14 :   0.2500 0.5000 0.0000  plane waves:   18506
 k-point  15 :   0.0000 0.5000-0.2500  plane waves:   18506
 k-point  16 :   0.5000 0.5000 0.0000  plane waves:   18528
 k-point  17 :   0.0000 0.5000 0.5000  plane waves:   18528
 k-point  18 :   0.2500 0.0000 0.2500  plane waves:   18509
 k-point  19 :   0.5000 0.0000 0.2500  plane waves:   18506
 k-point  20 :  -0.2500-0.0000 0.5000  plane waves:   18506
 k-point  21 :  -0.2500-0.0000 0.2500  plane waves:   18509
 k-point  22 :   0.2500 0.2500 0.2500  plane waves:   18500
 k-point  23 :   0.5000 0.2500 0.2500  plane waves:   18478
 k-point  24 :  -0.2500-0.2500 0.5000  plane waves:   18478
 k-point  25 :  -0.2500 0.2500 0.2500  plane waves:   18514
 k-point  26 :  -0.2500-0.2500 0.2500  plane waves:   18511
 k-point  27 :   0.2500 0.5000 0.2500  plane waves:   18478
 k-point  28 :   0.5000 0.5000 0.2500  plane waves:   18500
 k-point  29 :  -0.2500 0.5000 0.5000  plane waves:   18500
 k-point  30 :  -0.2500 0.5000 0.2500  plane waves:   18478
 k-point  31 :   0.2500-0.2500 0.2500  plane waves:   18509
 k-point  32 :   0.5000-0.2500 0.2500  plane waves:   18478
 k-point  33 :  -0.2500 0.2500 0.5000  plane waves:   18478
 k-point  34 :   0.5000 0.0000 0.5000  plane waves:   18528
 k-point  35 :   0.5000 0.2500 0.5000  plane waves:   18500
 k-point  36 :   0.5000 0.5000 0.5000  plane waves:   18504

 maximum and minimum number of plane-waves per node :     18613    18478

 maximum number of plane-waves:     18613
 maximum index in each direction: 
   IXMAX=   16   IYMAX=   16   IZMAX=   16
   IXMIN=  -16   IYMIN=  -16   IZMIN=  -16


 serial   3D FFT for wavefunctions
 parallel 3D FFT for charge:
    minimum data exchange during FFTs selected (reduces bandwidth)


 total amount of memory used by VASP MPI-rank0  2782079. kBytes
=======================================================================

   base      :      30000. kBytes
   nonl-proj :     303764. kBytes
   fftplans  :      34720. kBytes
   grid      :      70000. kBytes
   one-center:        746. kBytes
   wavefun   :    2342849. kBytes
 
     INWAV:  cpu time    4.6402: real time    4.7188
 Broyden mixing: mesh for mixing (old mesh)
   NGX = 33   NGY = 33   NGZ = 33
  (NGX  =100   NGY  =100   NGZ  =100)
  gives a total of  35937 points

 initial charge density was supplied:
 number of electron     352.0000522 magnetization 
 keeping initial charge density in first step


--------------------------------------------------------------------------------------------------------


 Maximum index for augmentation-charges         5610 (set IRDMAX)


--------------------------------------------------------------------------------------------------------


 First call to EWALD:  gamma=   0.139
 Maximum number of real-space cells 3x 3x 3
 Maximum number of reciprocal cells 3x 3x 3

    FEWALD:  cpu time    0.0026: real time    0.0026


--------------------------------------- Iteration      1(   1)  ---------------------------------------


    POTLOK:  cpu time    0.5852: real time    0.6002
    SETDIJ:  cpu time    0.0272: real time    0.0272
     EDDAV:  cpu time   57.2070: real time   57.2095
 BZINTS: Fermi energy:    2.052915;  352.000000 electrons
         Band energy:-0.758690E+03;  BLOECHL correction:    0.000000
       DOS:  cpu time    0.0563: real time    0.0563
    CHARGE:  cpu time    1.2194: real time    1.2195
    MIXING:  cpu time    0.0278: real time    0.0278
    --------------------------------------------
      LOOP:  cpu time   59.1229: real time   59.1405

 eigenvalue-minimisations  : 10456
 total energy-change (2. order) :-0.1199643E+03  (-0.2779959E-06)
 number of electron     352.0000522 magnetization 
 augmentation part      -23.1224389 magnetization 

 Broyden mixing:
  rms(total) = 0.67401E-03    rms(broyden)= 0.67398E-03
  rms(prec ) = 0.79332E-03
  weight for this iteration     100.00

 Free energy of the ion-electron system (eV)
  ---------------------------------------------------
  alpha Z        PSCENC =       225.92990211
  Ewald energy   TEWEN  =    -13871.08258059
  -Hartree energ DENC   =     -6077.96753113
  -exchange      EXHF   =         0.00000000
  -V(xc)+E(xc)   XCENC  =     -1392.36866808
  PAW double counting   =     22639.42329931   -20496.93264002
  entropy T*S    EENTRO =         0.00000000
  eigenvalues    EBANDS =      -758.68979122
  atomic energy  EATOM  =     19611.72375700
  Solvation  Ediel_sol  =         0.00000000
  ---------------------------------------------------
  free energy    TOTEN  =      -119.96425263 eV

  energy without entropy =     -119.96425263  energy(sigma->0) =     -119.96425263


--------------------------------------------------------------------------------------------------------




--------------------------------------- Iteration      1(   2)  ---------------------------------------


    POTLOK:  cpu time    0.5798: real time    0.5805
    SETDIJ:  cpu time    0.0414: real time    0.0414
     EDDAV:  cpu time   48.2949: real time   48.2970
 BZINTS: Fermi energy:    2.052979;  352.000000 electrons
         Band energy:-0.758691E+03;  BLOECHL correction:    0.000000
       DOS:  cpu time    0.0598: real time    0.0598
    --------------------------------------------
      LOOP:  cpu time   48.9758: real time   48.9786

 eigenvalue-minimisations  :  8210
 total energy-change (2. order) : 0.1101980E-06  (-0.1218215E-06)
 number of electron     352.0000522 magnetization 
 augmentation part      -23.1224389 magnetization 

 Free energy of the ion-electron system (eV)
  ---------------------------------------------------
  alpha Z        PSCENC =       225.92990211
  Ewald energy   TEWEN  =    -13871.08258059
  -Hartree energ DENC   =     -6077.96641160
  -exchange      EXHF   =         0.00000000
  -V(xc)+E(xc)   XCENC  =     -1392.36814446
  PAW double counting   =     22638.98966195   -20496.49969199
  entropy T*S    EENTRO =         0.00000000
  eigenvalues    EBANDS =      -758.69074493
  atomic energy  EATOM  =     19611.72375700
  Solvation  Ediel_sol  =         0.00000000
  ---------------------------------------------------
  free energy    TOTEN  =      -119.96425252 eV

  energy without entropy =     -119.96425252  energy(sigma->0) =     -119.96425252


--------------------------------------------------------------------------------------------------------




 average (electrostatic) potential at core
  the test charge radii are     1.1249  1.4024  1.1875
  (the norm of the test charge is              1.0000)
       1 -75.1902       2 -75.0703       3 -75.0683       4 -75.1890       5 -75.0621
       6 -75.0037       7 -75.0617       8 -75.0028       9 -65.5345      10 -65.4757
      11 -65.4754      12 -65.5352      13 -65.5271      14 -65.5030      15 -65.5294
      16 -65.5122      17 -93.2252      18 -93.3113      19 -93.3427      20 -93.3291
      21 -93.3229      22 -93.3321      23 -93.3195      24 -93.2319      25 -93.1004
      26 -93.1955      27 -93.0931      28 -93.0800      29 -93.0809      30 -92.9971
      31 -93.1901      32 -92.9983      33 -93.3228      34 -93.2274      35 -93.3197
      36 -93.3409      37 -93.3324      38 -93.3149      39 -93.2314      40 -93.3248
      41 -93.1728      42 -93.0156      43 -93.0776      44 -93.0138      45 -93.0767
      46 -93.0804      47 -93.0828      48 -93.1804
 
 
 
 E-fermi :   2.0530     XC(G=0):  -7.8001     alpha+bet : -7.7653


 k-point     1 :       0.0000    0.0000    0.0000
  band No.  band energies     occupation 
      1     -10.8461      2.00000
      2     -10.7171      2.00000
      3     -10.6712      2.00000
      4     -10.5358      2.00000
      5     -10.4829      2.00000
      6     -10.2575      2.00000
      7     -10.2226      2.00000
      8     -10.0422      2.00000
      9      -9.8909      2.00000
     10      -9.8845      2.00000
     11      -9.8689      2.00000
     12      -9.8538      2.00000
     13      -9.8413      2.00000
     14      -9.8088      2.00000
     15      -9.8057      2.00000
     16      -9.7412      2.00000
     17      -9.7305      2.00000
     18      -9.7149      2.00000
     19      -9.7070      2.00000
     20      -9.7032      2.00000
     21      -9.6840      2.00000
     22      -9.6600      2.00000
     23      -9.6538      2.00000
     24      -9.6270      2.00000
     25      -9.6140      2.00000
     26      -9.6064      2.00000
     27      -9.5898      2.00000
     28      -9.5637      2.00000
     29      -9.5540      2.00000
     30      -9.5525      2.00000
     31      -9.5414      2.00000
     32      -9.5110      2.00000
     33      -8.2244      2.00000
     34      -8.1249      2.00000
     35      -8.1135      2.00000
     36      -7.8823      2.00000
     37      -7.8577      2.00000
     38      -7.6473      2.00000
     39      -7.6322      2.00000
     40      -7.6295      2.00000
     41      -1.8228      2.00000
     42      -1.7636      2.00000
     43      -1.7200      2.00000
     44      -1.7047      2.00000
     45      -1.6572      2.00000
     46      -1.5886      2.00000
     47      -1.5329      2.00000
     48      -1.4767      2.00000
     49      -1.4715      2.00000
     50      -1.4403      2.00000
     51      -1.4358      2.00000
     52      -1.3940      2.00000
     53      -1.3578      2.00000
     54      -1.3304      2.00000
     55      -1.3222      2.00000
     56      -1.2787      2.00000
     57      -1.2343      2.00000
     58      -1.2265      2.00000
     59      -1.1575      2.00000
     60      -1.1120      2.00000
     61      -1.1002      2.00000
     62      -1.0661      2.00000
     63      -1.0218      2.00000
     64      -1.0185      2.00000
     65      -1.0164      2.00000
     66      -0.9987      2.00000
     67      -0.9855      2.00000
     68      -0.9839      2.00000
     69      -0.9638      2.00000
     70      -0.9221      2.00000
     71      -0.9197      2.00000
     72      -0.9170      2.00000
     73      -0.8868      2.00000
     74      -0.8516      2.00000
     75      -0.8463      2.00000
     76      -0.8212      2.00000
     77      -0.8137      2.00000
     78      -0.8073      2.00000
     79      -0.7806      2.00000
     80      -0.7342      2.00000
     81      -0.7027      2.00000
     82      -0.6991      2.00000
     83      -0.6636      2.00000
     84      -0.6403      2.00000
     85      -0.6342      2.00000
     86      -0.6205      2.00000
     87      -0.5792      2.00000
     88      -0.5530      2.00000
     89      -0.5434      2.00000
     90      -0.5093      2.00000
     91      -0.4908      2.00000
     92      -0.4723      2.00000
     93      -0.4661      2.00000
     94      -0.4176      2.00000
     95      -0.4014      2.00000
     96      -0.3764      2.00000
     97      -0.3572      2.00000
     98      -0.3532      2.00000
     99      -0.3310      2.00000
    100      -0.3225      2.00000
    101      -0.2872      2.00000
    102      -0.2652      2.00000
    103      -0.2590      2.00000
    104      -0.2269      2.00000
    105      -0.2127      2.00000
    106      -0.2031      2.00000
    107      -0.1752      2.00000
    108      -0.1579      2.00000
    109      -0.1317      2.00000
    110      -0.1214      2.00000
    111      -0.0641      2.00000
    112      -0.0508      2.00000
    113       0.0754      2.00000
    114       0.1249      2.00000
    115       0.1627      2.00000
    116       0.1751      2.00000
    117       0.1822      2.00000
    118       0.2112      2.00000
    119       0.2352      2.00000
    120       0.2414      2.00000
    121       0.2530      2.00000
    122       0.2874      2.00000
    123       0.3512      2.00000
    124       0.3959      2.00000
    125       0.3969      2.00000
    126       0.4149      2.00000
    127       0.4783      2.00000
    128       0.5162      2.00000
    129       0.5270      2.00000
    130       0.5274      2.00000
    131       0.5412      2.00000
    132       0.5485      2.00000
    133       0.5815      2.00000
    134       0.6377      2.00000
    135       0.6897      2.00000
    136       0.7064      2.00000
    137       0.7099      2.00000
    138       0.7156      2.00000
    139       0.7248      2.00000
    140       0.7774      2.00000
    141       0.7857      2.00000
    142       0.7894      2.00000
    143       0.8194      2.00000
    144       0.8375      2.00000
    145       0.8448      2.00000
    146       0.8897      2.00000
    147       0.9369      2.00000
    148       0.9602      2.00000
    149       0.9876      2.00000
    150       1.0280      2.00000
    151       1.0628      2.00000
    152       1.0911      2.00000
    153       1.1021      2.00000
    154       1.1465      2.00000
    155       1.1614      2.00000
    156       1.1719      2.00000
    157       1.1948      2.00000
    158       1.2001      2.00000
    159       1.2372      2.00000
    160       1.3036      2.00000
    161       1.3569      2.00000
    162       1.3998      2.00000
    163       1.4549      2.00000
    164       1.4826      2.00000
    165       1.5302      2.00000
    166       1.5427      2.00000
    167       1.5683      2.00000
    168       1.5956      2.00000
    169       1.7557      2.00000
    170       1.7616      2.00000
    171       1.8712      2.00000
    172       1.8865      2.00000
    173       1.9958      2.00000
    174       2.0068      2.00000
    175       2.0230      2.00000
    176       2.0530      2.00000
    177       3.8368      0.00000
    178       4.0011      0.00000
    179       4.0040      0.00000
    180       4.1199      0.00000
    181       4.1582      0.00000
    182       4.3385      0.00000
    183       4.3407      0.00000
    184       4.3921      0.00000
    185       4.4174      0.00000
    186       4.4352      0.00000
    187       4.5134      0.00000
    188       4.5284      0.00000
    189       4.5550      0.00000
    190       4.5590      0.00000
    191       4.5977      0.00000
    192       4.6042      0.00000
    193       4.6422      0.00000
    194       4.6997      0.00000
    195       4.7291      0.00000
    196       4.7340      0.00000
    197       4.7947      0.00000
    198       4.8252      0.00000
    199       4.8307      0.00000
    200       4.9508      0.00000
    201       5.0679      0.00000
    202       5.2648      0.00000
    203       5.5805      0.00000
    204       5.7245      0.00000
    205       5.9080      0.00000
    206       5.9284      0.00000
    207       5.9439      0.00000
    208       5.9806      0.00000
    209       7.1543      0.00000
    210       7.2611      0.00000
    211       7.2691      0.00000

 k-point     2 :       0.2500    0.0000   -0.0000
  band No.  band energies     occupation 
      1     -10.8313      2.00000
      2     -10.7229      2.00000
      3     -10.6914      2.00000
      4     -10.5331      2.00000
      5     -10.4795      2.00000
      6     -10.2564      2.00000
      7     -10.2114      2.00000
      8     -10.0530      2.00000
      9      -9.8969      2.00000
     10      -9.8920      2.00000
     11      -9.8740      2.00000
     12      -9.8536      2.00000
     13      -9.8441      2.00000
     14      -9.7990      2.00000
     15      -9.7868      2.00000
     16      -9.7439      2.00000
     17      -9.7309      2.00000
     18      -9.7169      2.00000
     19      -9.6998      2.00000
     20      -9.6946      2.00000
     21      -9.6894      2.00000
     22      -9.6604      2.00000
     23      -9.6481      2.00000
     24      -9.6331      2.00000
     25      -9.6109      2.00000
     26      -9.6087      2.00000
     27      -9.5849      2.00000
     28      -9.5689      2.00000
     29      -9.5576      2.00000
     30      -9.5523      2.00000
     31      -9.5399      2.00000
     32      -9.5167      2.00000
     33      -8.2297      2.00000
     34      -8.1217      2.00000
     35      -8.1131      2.00000
     36      -7.8810      2.00000
     37      -7.8583      2.00000
     38      -7.6788      2.00000
     39      -7.6299      2.00000
     40      -7.6005      2.00000
     41      -1.8013      2.00000
     42      -1.7486      2.00000
     43      -1.7191      2.00000
     44      -1.6906      2.00000
     45      -1.6507      2.00000
     46      -1.6101      2.00000
     47      -1.5622      2.00000
     48      -1.5466      2.00000
     49      -1.4945      2.00000
     50      -1.4507      2.00000
     51      -1.3950      2.00000
     52      -1.3841      2.00000
     53      -1.3504      2.00000
     54      -1.3251      2.00000
     55      -1.3020      2.00000
     56      -1.2725      2.00000
     57      -1.2249      2.00000
     58      -1.2015      2.00000
     59      -1.1788      2.00000
     60      -1.1295      2.00000
     61      -1.1163      2.00000
     62      -1.0841      2.00000
     63      -1.0495      2.00000
     64      -1.0343      2.00000
     65      -1.0187      2.00000
     66      -1.0003      2.00000
     67      -0.9775      2.00000
     68      -0.9641      2.00000
     69      -0.9462      2.00000
     70      -0.9344      2.00000
     71      -0.9144      2.00000
     72      -0.9030      2.00000
     73      -0.8857      2.00000
     74      -0.8715      2.00000
     75      -0.8392      2.00000
     76      -0.8190      2.00000
     77      -0.8128      2.00000
     78      -0.8092      2.00000
     79      -0.7636      2.00000
     80      -0.7545      2.00000
     81      -0.7058      2.00000
     82      -0.6809      2.00000
     83      -0.6599      2.00000
     84      -0.6498      2.00000
     85      -0.6342      2.00000
     86      -0.5922      2.00000
     87      -0.5822      2.00000
     88      -0.5552      2.00000
     89      -0.5113      2.00000
     90      -0.4999      2.00000
     91      -0.4809      2.00000
     92      -0.4735      2.00000
     93      -0.4438      2.00000
     94      -0.4187      2.00000
     95      -0.4001      2.00000
     96      -0.3898      2.00000
     97      -0.3746      2.00000
     98      -0.3686      2.00000
     99      -0.3419      2.00000
    100      -0.3151      2.00000
    101      -0.3037      2.00000
    102      -0.2829      2.00000
    103      -0.2277      2.00000
    104      -0.2246      2.00000
    105      -0.2093      2.00000
    106      -0.1796      2.00000
    107      -0.1618      2.00000
    108      -0.1594      2.00000
    109      -0.1470      2.00000
    110      -0.1364      2.00000
    111      -0.1022      2.00000
    112      -0.0520      2.00000
    113       0.0819      2.00000
    114       0.1098      2.00000
    115       0.1297      2.00000
    116       0.1480      2.00000
    117       0.1764      2.00000
    118       0.2270      2.00000
    119       0.2476      2.00000
    120       0.2627      2.00000
    121       0.2854      2.00000
    122       0.3346      2.00000
    123       0.3503      2.00000
    124       0.3546      2.00000
    125       0.4159      2.00000
    126       0.4462      2.00000
    127       0.4655      2.00000
    128       0.5114      2.00000
    129       0.5248      2.00000
    130       0.5538      2.00000
    131       0.5653      2.00000
    132       0.5899      2.00000
    133       0.6018      2.00000
    134       0.6254      2.00000
    135       0.6500      2.00000
    136       0.6854      2.00000
    137       0.6989      2.00000
    138       0.7174      2.00000
    139       0.7544      2.00000
    140       0.7589      2.00000
    141       0.7751      2.00000
    142       0.8112      2.00000
    143       0.8175      2.00000
    144       0.8311      2.00000
    145       0.8640      2.00000
    146       0.8986      2.00000
    147       0.9703      2.00000
    148       0.9865      2.00000
    149       0.9902      2.00000
    150       1.0106      2.00000
    151       1.0191      2.00000
    152       1.0795      2.00000
    153       1.1237      2.00000
    154       1.1475      2.00000
    155       1.1518      2.00000
    156       1.1546      2.00000
    157       1.1858      2.00000
    158       1.2087      2.00000
    159       1.2412      2.00000
    160       1.2928      2.00000
    161       1.3535      2.00000
    162       1.4077      2.00000
    163       1.4655      2.00000
    164       1.4776      2.00000
    165       1.5234      2.00000
    166       1.5478      2.00000
    167       1.5948      2.00000
    168       1.6166      2.00000
    169       1.7522      2.00000
    170       1.7648      2.00000
    171       1.8487      2.00000
    172       1.8732      2.00000
    173       1.9620      2.00000
    174       1.9712      2.00000
    175       2.0027      2.00000
    176       2.0152      2.00000
    177       3.8958      0.00000
    178       3.9871      0.00000
    179       4.0256      0.00000
    180       4.1412      0.00000
    181       4.1621      0.00000
    182       4.2981      0.00000
    183       4.3188      0.00000
    184       4.3907      0.00000
    185       4.4211      0.00000
    186       4.4462      0.00000
    187       4.4661      0.00000
    188       4.5052      0.00000
    189       4.5729      0.00000
    190       4.5818      0.00000
    191       4.5925      0.00000
    192       4.6216      0.00000
    193       4.6485      0.00000
    194       4.6565      0.00000
    195       4.6961      0.00000
    196       4.7544      0.00000
    197       4.7818      0.00000
    198       4.8229      0.00000
    199       4.8547      0.00000
    200       4.9294      0.00000
    201       5.1951      0.00000
    202       5.3492      0.00000
    203       5.5912      0.00000
    204       5.7362      0.00000
    205       5.8066      0.00000
    206       5.8270      0.00000
    207       5.9469      0.00000
    208       5.9599      0.00000
    209       7.2662      0.00000
    210       7.2999      0.00000
    211       7.3698      0.00000

 k-point     3 :       0.0000   -0.0000   -0.2500
  band No.  band energies     occupation 
      1     -10.8313      2.00000
      2     -10.7225      2.00000
      3     -10.6919      2.00000
      4     -10.5331      2.00000
      5     -10.4795      2.00000
      6     -10.2561      2.00000
      7     -10.2118      2.00000
      8     -10.0529      2.00000
      9      -9.8963      2.00000
     10      -9.8917      2.00000
     11      -9.8747      2.00000
     12      -9.8535      2.00000
     13      -9.8440      2.00000
     14      -9.7988      2.00000
     15      -9.7876      2.00000
     16      -9.7447      2.00000
     17      -9.7299      2.00000
     18      -9.7169      2.00000
     19      -9.6965      2.00000
     20      -9.6954      2.00000
     21      -9.6914      2.00000
     22      -9.6609      2.00000
     23      -9.6483      2.00000
     24      -9.6330      2.00000
     25      -9.6109      2.00000
     26      -9.6091      2.00000
     27      -9.5845      2.00000
     28      -9.5687      2.00000
     29      -9.5568      2.00000
     30      -9.5526      2.00000
     31      -9.5403      2.00000
     32      -9.5168      2.00000
     33      -8.2297      2.00000
     34      -8.1223      2.00000
     35      -8.1126      2.00000
     36      -7.8811      2.00000
     37      -7.8583      2.00000
     38      -7.6779      2.00000
     39      -7.6310      2.00000
     40      -7.6003      2.00000
     41      -1.8010      2.00000
     42      -1.7488      2.00000
     43      -1.7189      2.00000
     44      -1.6905      2.00000
     45      -1.6506      2.00000
     46      -1.6101      2.00000
     47      -1.5620      2.00000
     48      -1.5463      2.00000
     49      -1.4943      2.00000
     50      -1.4510      2.00000
     51      -1.3957      2.00000
     52      -1.3845      2.00000
     53      -1.3512      2.00000
     54      -1.3252      2.00000
     55      -1.3017      2.00000
     56      -1.2740      2.00000
     57      -1.2263      2.00000
     58      -1.2014      2.00000
     59      -1.1791      2.00000
     60      -1.1285      2.00000
     61      -1.1170      2.00000
     62      -1.0833      2.00000
     63      -1.0493      2.00000
     64      -1.0345      2.00000
     65      -1.0167      2.00000
     66      -0.9991      2.00000
     67      -0.9781      2.00000
     68      -0.9661      2.00000
     69      -0.9443      2.00000
     70      -0.9342      2.00000
     71      -0.9145      2.00000
     72      -0.9038      2.00000
     73      -0.8856      2.00000
     74      -0.8714      2.00000
     75      -0.8382      2.00000
     76      -0.8185      2.00000
     77      -0.8129      2.00000
     78      -0.8082      2.00000
     79      -0.7630      2.00000
     80      -0.7534      2.00000
     81      -0.7054      2.00000
     82      -0.6815      2.00000
     83      -0.6590      2.00000
     84      -0.6507      2.00000
     85      -0.6340      2.00000
     86      -0.5939      2.00000
     87      -0.5830      2.00000
     88      -0.5552      2.00000
     89      -0.5124      2.00000
     90      -0.4995      2.00000
     91      -0.4805      2.00000
     92      -0.4745      2.00000
     93      -0.4425      2.00000
     94      -0.4196      2.00000
     95      -0.4005      2.00000
     96      -0.3891      2.00000
     97      -0.3758      2.00000
     98      -0.3682      2.00000
     99      -0.3414      2.00000
    100      -0.3150      2.00000
    101      -0.3043      2.00000
    102      -0.2821      2.00000
    103      -0.2266      2.00000
    104      -0.2247      2.00000
    105      -0.2094      2.00000
    106      -0.1797      2.00000
    107      -0.1616      2.00000
    108      -0.1596      2.00000
    109      -0.1473      2.00000
    110      -0.1351      2.00000
    111      -0.1024      2.00000
    112      -0.0526      2.00000
    113       0.0802      2.00000
    114       0.1085      2.00000
    115       0.1315      2.00000
    116       0.1461      2.00000
    117       0.1766      2.00000
    118       0.2275      2.00000
    119       0.2480      2.00000
    120       0.2633      2.00000
    121       0.2848      2.00000
    122       0.3348      2.00000
    123       0.3505      2.00000
    124       0.3547      2.00000
    125       0.4159      2.00000
    126       0.4458      2.00000
    127       0.4662      2.00000
    128       0.5103      2.00000
    129       0.5253      2.00000
    130       0.5539      2.00000
    131       0.5648      2.00000
    132       0.5912      2.00000
    133       0.6006      2.00000
    134       0.6259      2.00000
    135       0.6496      2.00000
    136       0.6857      2.00000
    137       0.6976      2.00000
    138       0.7187      2.00000
    139       0.7539      2.00000
    140       0.7596      2.00000
    141       0.7746      2.00000
    142       0.8134      2.00000
    143       0.8183      2.00000
    144       0.8307      2.00000
    145       0.8630      2.00000
    146       0.8961      2.00000
    147       0.9704      2.00000
    148       0.9867      2.00000
    149       0.9909      2.00000
    150       1.0107      2.00000
    151       1.0200      2.00000
    152       1.0788      2.00000
    153       1.1231      2.00000
    154       1.1477      2.00000
    155       1.1522      2.00000
    156       1.1549      2.00000
    157       1.1866      2.00000
    158       1.2076      2.00000
    159       1.2416      2.00000
    160       1.2930      2.00000
    161       1.3538      2.00000
    162       1.4083      2.00000
    163       1.4652      2.00000
    164       1.4785      2.00000
    165       1.5208      2.00000
    166       1.5464      2.00000
    167       1.5953      2.00000
    168       1.6189      2.00000
[...]
    143       0.7955      2.00000
    144       0.8821      2.00000
    145       0.9099      2.00000
    146       0.9512      2.00000
    147       0.9824      2.00000
    148       1.0056      2.00000
    149       1.0127      2.00000
    150       1.0479      2.00000
    151       1.0616      2.00000
    152       1.0857      2.00000
    153       1.1009      2.00000
    154       1.1077      2.00000
    155       1.1534      2.00000
    156       1.1605      2.00000
    157       1.1961      2.00000
    158       1.2274      2.00000
    159       1.2355      2.00000
    160       1.2537      2.00000
    161       1.4789      2.00000
    162       1.4817      2.00000
    163       1.5358      2.00000
    164       1.5537      2.00000
    165       1.5827      2.00000
    166       1.5872      2.00000
    167       1.6267      2.00000
    168       1.6396      2.00000
    169       1.7372      2.00000
    170       1.7730      2.00000
    171       1.8310      2.00000
    172       1.8398      2.00000
    173       1.8543      2.00000
    174       1.8703      2.00000
    175       2.0069      2.00000
    176       2.0239      2.00000
    177       3.7174      0.00000
    178       3.7812      0.00000
    179       3.9637      0.00000
    180       4.0204      0.00000
    181       4.0813      0.00000
    182       4.1088      0.00000
    183       4.2381      0.00000
    184       4.2863      0.00000
    185       4.3279      0.00000
    186       4.3844      0.00000
    187       4.4414      0.00000
    188       4.4559      0.00000
    189       4.6063      0.00000
    190       4.6233      0.00000
    191       4.6507      0.00000
    192       4.7236      0.00000
    193       4.7842      0.00000
    194       4.7944      0.00000
    195       4.7982      0.00000
    196       4.8216      0.00000
    197       4.8838      0.00000
    198       4.8886      0.00000
    199       4.9506      0.00000
    200       4.9786      0.00000
    201       5.5398      0.00000
    202       5.5519      0.00000
    203       5.5915      0.00000
    204       5.5967      0.00000
    205       5.6108      0.00000
    206       5.6812      0.00000
    207       5.7610      0.00000
    208       5.8004      0.00000
    209       7.3550      0.00000
    210       7.4008      0.00000
    211       7.5179      0.00000

 k-point    36 :       0.5000    0.5000    0.5000
  band No.  band energies     occupation 
      1     -10.7736      2.00000
      2     -10.7680      2.00000
      3     -10.6426      2.00000
      4     -10.6419      2.00000
      5     -10.3854      2.00000
      6     -10.3847      2.00000
      7     -10.1203      2.00000
      8     -10.1127      2.00000
      9      -9.9104      2.00000
     10      -9.9054      2.00000
     11      -9.8229      2.00000
     12      -9.8146      2.00000
     13      -9.7931      2.00000
     14      -9.7914      2.00000
     15      -9.7506      2.00000
     16      -9.7503      2.00000
     17      -9.7306      2.00000
     18      -9.7256      2.00000
     19      -9.7053      2.00000
     20      -9.7007      2.00000
     21      -9.6970      2.00000
     22      -9.6935      2.00000
     23      -9.6404      2.00000
     24      -9.6325      2.00000
     25      -9.6165      2.00000
     26      -9.6137      2.00000
     27      -9.5884      2.00000
     28      -9.5829      2.00000
     29      -9.5556      2.00000
     30      -9.5501      2.00000
     31      -9.5389      2.00000
     32      -9.5381      2.00000
     33      -8.2014      2.00000
     34      -8.1997      2.00000
     35      -8.0074      2.00000
     36      -8.0040      2.00000
     37      -7.7653      2.00000
     38      -7.7651      2.00000
     39      -7.5901      2.00000
     40      -7.5841      2.00000
     41      -1.7863      2.00000
     42      -1.7795      2.00000
     43      -1.6780      2.00000
     44      -1.6763      2.00000
     45      -1.6347      2.00000
     46      -1.6339      2.00000
     47      -1.5408      2.00000
     48      -1.5394      2.00000
     49      -1.4925      2.00000
     50      -1.4923      2.00000
     51      -1.4620      2.00000
     52      -1.4555      2.00000
     53      -1.3794      2.00000
     54      -1.3792      2.00000
     55      -1.2896      2.00000
     56      -1.2885      2.00000
     57      -1.2716      2.00000
     58      -1.2701      2.00000
     59      -1.1458      2.00000
     60      -1.1352      2.00000
     61      -1.0513      2.00000
     62      -1.0431      2.00000
     63      -1.0109      2.00000
     64      -1.0057      2.00000
     65      -0.9994      2.00000
     66      -0.9889      2.00000
     67      -0.9691      2.00000
     68      -0.9628      2.00000
     69      -0.9202      2.00000
     70      -0.9111      2.00000
     71      -0.8871      2.00000
     72      -0.8815      2.00000
     73      -0.8692      2.00000
     74      -0.8685      2.00000
     75      -0.8445      2.00000
     76      -0.8429      2.00000
     77      -0.8312      2.00000
     78      -0.8250      2.00000
     79      -0.7482      2.00000
     80      -0.7452      2.00000
     81      -0.6976      2.00000
     82      -0.6951      2.00000
     83      -0.6270      2.00000
     84      -0.6220      2.00000
     85      -0.5945      2.00000
     86      -0.5854      2.00000
     87      -0.5523      2.00000
     88      -0.5512      2.00000
     89      -0.5255      2.00000
     90      -0.5179      2.00000
     91      -0.4818      2.00000
     92      -0.4774      2.00000
     93      -0.4079      2.00000
     94      -0.4074      2.00000
     95      -0.3859      2.00000
     96      -0.3800      2.00000
     97      -0.3615      2.00000
     98      -0.3589      2.00000
     99      -0.3161      2.00000
    100      -0.3108      2.00000
    101      -0.3094      2.00000
    102      -0.3043      2.00000
    103      -0.2592      2.00000
    104      -0.2547      2.00000
    105      -0.2108      2.00000
    106      -0.2070      2.00000
    107      -0.1888      2.00000
    108      -0.1860      2.00000
    109      -0.1472      2.00000
    110      -0.1471      2.00000
    111      -0.0863      2.00000
    112      -0.0854      2.00000
    113       0.0339      2.00000
    114       0.0368      2.00000
    115       0.1458      2.00000
    116       0.1461      2.00000
    117       0.2303      2.00000
    118       0.2354      2.00000
    119       0.2828      2.00000
    120       0.2855      2.00000
    121       0.3645      2.00000
    122       0.3672      2.00000
    123       0.3706      2.00000
    124       0.3731      2.00000
    125       0.4209      2.00000
    126       0.4235      2.00000
    127       0.4534      2.00000
    128       0.4574      2.00000
    129       0.5097      2.00000
    130       0.5154      2.00000
    131       0.5531      2.00000
    132       0.5536      2.00000
    133       0.5686      2.00000
    134       0.5806      2.00000
    135       0.6073      2.00000
    136       0.6085      2.00000
    137       0.6652      2.00000
    138       0.6704      2.00000
    139       0.6944      2.00000
    140       0.7069      2.00000
    141       0.7382      2.00000
    142       0.7422      2.00000
    143       0.8797      2.00000
    144       0.8802      2.00000
    145       0.9055      2.00000
    146       0.9135      2.00000
    147       1.0291      2.00000
    148       1.0362      2.00000
    149       1.0501      2.00000
    150       1.0563      2.00000
    151       1.0726      2.00000
    152       1.0762      2.00000
    153       1.0885      2.00000
    154       1.0900      2.00000
    155       1.1739      2.00000
    156       1.1742      2.00000
    157       1.2016      2.00000
    158       1.2020      2.00000
    159       1.2636      2.00000
    160       1.2669      2.00000
    161       1.4727      2.00000
    162       1.4757      2.00000
    163       1.5713      2.00000
    164       1.5751      2.00000
    165       1.5811      2.00000
    166       1.5845      2.00000
    167       1.6893      2.00000
    168       1.6947      2.00000
    169       1.7718      2.00000
    170       1.7752      2.00000
    171       1.8291      2.00000
    172       1.8320      2.00000
    173       1.8628      2.00000
    174       1.8640      2.00000
    175       2.0165      2.00000
    176       2.0167      2.00000
    177       3.7044      0.00000
    178       3.7106      0.00000
    179       3.9103      0.00000
    180       3.9134      0.00000
    181       4.0415      0.00000
    182       4.0446      0.00000
    183       4.2279      0.00000
    184       4.2297      0.00000
    185       4.3141      0.00000
    186       4.3190      0.00000
    187       4.4218      0.00000
    188       4.4222      0.00000
    189       4.6130      0.00000
    190       4.6170      0.00000
    191       4.7018      0.00000
    192       4.7045      0.00000
    193       4.8159      0.00000
    194       4.8243      0.00000
    195       4.8457      0.00000
    196       4.8484      0.00000
    197       4.9468      0.00000
    198       4.9508      0.00000
    199       5.0275      0.00000
    200       5.0307      0.00000
    201       5.5326      0.00000
    202       5.5340      0.00000
    203       5.5632      0.00000
    204       5.5640      0.00000
    205       5.6036      0.00000
    206       5.6202      0.00000
    207       5.7959      0.00000
    208       5.7981      0.00000
    209       7.2423      0.00000
    210       7.2462      0.00000
    211       7.4988      0.00000


--------------------------------------------------------------------------------------------------------


 soft charge-density along one line, spin component           1
         0         1         2         3         4         5         6         7         8         9
 total charge-density along one line
 
 pseudopotential strength for first ion, spin component:           1
 -6.520   0.003  -0.000   0.000  -0.001  -6.652   0.003  -0.000
  0.003  -6.520  -0.001   0.000  -0.001   0.003  -6.652  -0.001
 -0.000  -0.001  -6.520   0.002   0.004  -0.000  -0.001  -6.652
  0.000   0.000   0.002  -6.527   0.003   0.000   0.000   0.002
 -0.001  -0.001   0.004   0.003  -6.516  -0.001  -0.001   0.003
 -6.652   0.003  -0.000   0.000  -0.001  -6.753   0.003  -0.000
  0.003  -6.652  -0.001   0.000  -0.001   0.003  -6.753  -0.001
 -0.000  -0.001  -6.652   0.002   0.003  -0.000  -0.001  -6.753
  0.000   0.000   0.002  -6.659   0.003   0.000   0.000   0.002
 -0.001  -0.001   0.003   0.003  -6.648  -0.001  -0.001   0.003
  0.000   0.000  -0.001   0.000  -0.001   0.000   0.000  -0.001
  0.000   0.000  -0.001   0.001  -0.002   0.000   0.000  -0.001
 -0.005   0.005  -0.000  -0.000  -0.000  -0.005   0.005  -0.000
 -0.000  -0.000   0.008  -0.006   0.000  -0.000   0.000   0.007
  0.000  -0.000   0.004   0.006  -0.007   0.000  -0.000   0.004
 -0.007   0.007  -0.000  -0.000  -0.000  -0.007   0.007  -0.000
 -0.000   0.000   0.009  -0.007   0.000  -0.000   0.000   0.009
  0.000  -0.000   0.005   0.007  -0.008   0.000  -0.000   0.004
 total augmentation occupancy for first ion, spin component:           1
  2.407  -0.022  -0.051  -0.017  -0.166  -0.413   0.013   0.049   0.014   0.147  -0.040   0.007   0.078  -0.003   0.020  -0.007
 -0.022   2.410  -0.117  -0.016  -0.121   0.013  -0.416   0.102   0.013   0.110  -0.034   0.006  -0.079  -0.020   0.002   0.007
 -0.051  -0.117   3.776   0.135   0.350   0.049   0.102  -1.647  -0.131  -0.349   0.218  -0.032  -0.021   0.238   0.086   0.001
 -0.017  -0.016   0.135   2.336   0.235   0.014   0.013  -0.131  -0.329  -0.226  -0.203   0.034  -0.000   0.054  -0.054   0.000
 -0.166  -0.121   0.350   0.235   4.178   0.147   0.110  -0.349  -0.227  -2.049   0.381  -0.056   0.011   0.038  -0.223  -0.001
 -0.413   0.013   0.049   0.014   0.147   0.403  -0.004  -0.047  -0.011  -0.131   0.035  -0.008  -0.063   0.002  -0.019   0.004
  0.013  -0.416   0.102   0.013   0.110  -0.004   0.406  -0.089  -0.010  -0.101   0.030  -0.007   0.064   0.018  -0.001  -0.004
  0.049   0.102  -1.647  -0.131  -0.349  -0.047  -0.089   1.514   0.126   0.347  -0.194   0.036   0.018  -0.215  -0.080  -0.001
  0.014   0.013  -0.131  -0.329  -0.227  -0.011  -0.010   0.126   0.306   0.218   0.188  -0.041   0.000  -0.040   0.040  -0.000
  0.147   0.110  -0.349  -0.226  -2.049  -0.131  -0.101   0.347   0.218   1.913  -0.340   0.063  -0.009  -0.032   0.201   0.001
 -0.040  -0.034   0.218  -0.203   0.381   0.035   0.030  -0.194   0.188  -0.340   1.487  -0.314  -0.001  -0.046   0.046   0.000
  0.007   0.006  -0.032   0.034  -0.056  -0.008  -0.007   0.036  -0.041   0.063  -0.314   0.072   0.000   0.011  -0.011  -0.000
  0.078  -0.079  -0.021  -0.000   0.011  -0.063   0.064   0.018   0.000  -0.009  -0.001   0.000   0.120   0.002   0.002  -0.008
 -0.003  -0.020   0.238   0.054   0.038   0.002   0.018  -0.215  -0.040  -0.032  -0.046   0.011   0.002   0.080   0.014  -0.000
  0.020   0.002   0.086  -0.054  -0.223  -0.019  -0.001  -0.080   0.040   0.201   0.046  -0.011   0.002   0.014   0.080  -0.000
 -0.007   0.007   0.001   0.000  -0.001   0.004  -0.004  -0.001  -0.000   0.001   0.000  -0.000  -0.008  -0.000  -0.000   0.001
  0.000   0.001  -0.010  -0.006  -0.001  -0.000  -0.001   0.014   0.003   0.001   0.004  -0.001  -0.000  -0.005  -0.001   0.000
 -0.001  -0.000  -0.004   0.005   0.009   0.001   0.000   0.006  -0.003  -0.012  -0.004   0.001  -0.000  -0.001  -0.005   0.000


------------------------ aborting loop because EDIFF is reached ----------------------------------------


 


 total charge     
 
# of ion       s       p       d       tot
------------------------------------------
    1        0.253   0.158   9.312   9.723
    2        0.241   0.151   9.320   9.712
    3        0.241   0.151   9.320   9.712
    4        0.254   0.159   9.312   9.725
    5        0.241   0.151   9.320   9.712
    6        0.238   0.146   9.323   9.708
    7        0.241   0.151   9.320   9.712
    8        0.238   0.147   9.323   9.708
    9        1.834   1.401   0.138   3.373
   10        1.833   1.400   0.135   3.368
   11        1.833   1.400   0.135   3.369
   12        1.833   1.401   0.138   3.373
   13        1.834   1.400   0.139   3.373
   14        1.835   1.397   0.139   3.370
   15        1.834   1.401   0.139   3.373
   16        1.835   1.397   0.139   3.371
   17        1.514   2.742   0.017   4.273
   18        1.518   2.743   0.012   4.273
   19        1.518   2.742   0.012   4.272
   20        1.518   2.742   0.013   4.273
   21        1.518   2.742   0.011   4.272
   22        1.518   2.742   0.012   4.272
   23        1.518   2.742   0.011   4.271
   24        1.514   2.742   0.017   4.273
   25        1.514   2.743   0.015   4.272
   26        1.517   2.745   0.013   4.275
   27        1.514   2.743   0.015   4.272
   28        1.516   2.743   0.015   4.274
   29        1.516   2.743   0.015   4.274
   30        1.513   2.747   0.016   4.276
   31        1.517   2.745   0.013   4.275
   32        1.513   2.747   0.016   4.276
   33        1.518   2.742   0.011   4.272
   34        1.514   2.742   0.017   4.273
   35        1.518   2.742   0.011   4.272
   36        1.518   2.742   0.012   4.272
   37        1.518   2.742   0.012   4.272
   38        1.518   2.743   0.012   4.273
   39        1.514   2.742   0.017   4.273
   40        1.518   2.742   0.013   4.273
   41        1.518   2.746   0.012   4.276
   42        1.513   2.747   0.016   4.276
   43        1.515   2.744   0.015   4.274
   44        1.513   2.747   0.016   4.276
   45        1.514   2.744   0.015   4.272
   46        1.515   2.744   0.015   4.274
   47        1.514   2.743   0.015   4.272
   48        1.517   2.746   0.012   4.275
--------------------------------------------------
tot         65.135 100.207  76.090 241.431
 


--------------------------------------------------------------------------------------------------------



  FREE ENERGIE OF THE ION-ELECTRON SYSTEM (eV)
  ---------------------------------------------------
  free  energy   TOTEN  =      -119.96425252 eV

  energy  without entropy=     -119.96425252  energy(sigma->0) =     -119.96425252
 


--------------------------------------------------------------------------------------------------------




--------------------------------------------------------------------------------------------------------


 writing wavefunctions
     LOOP+:  cpu time  112.9755: real time  113.0975
    4ORBIT:  cpu time    0.0000: real time    0.0000
 


 total charge     
 
# of ion       s       p       d       tot
------------------------------------------
    1        0.253   0.158   9.312   9.723
    2        0.241   0.151   9.320   9.712
    3        0.241   0.151   9.320   9.712
    4        0.254   0.159   9.312   9.725
    5        0.241   0.151   9.320   9.712
    6        0.238   0.146   9.323   9.708
    7        0.241   0.151   9.320   9.712
    8        0.238   0.147   9.323   9.708
    9        1.834   1.401   0.138   3.373
   10        1.833   1.400   0.135   3.368
   11        1.833   1.400   0.135   3.369
   12        1.833   1.401   0.138   3.373
   13        1.834   1.400   0.139   3.373
   14        1.835   1.397   0.139   3.370
   15        1.834   1.401   0.139   3.373
   16        1.835   1.397   0.139   3.371
   17        1.514   2.742   0.017   4.273
   18        1.518   2.743   0.012   4.273
   19        1.518   2.742   0.012   4.272
   20        1.518   2.742   0.013   4.273
   21        1.518   2.742   0.011   4.272
   22        1.518   2.742   0.012   4.272
   23        1.518   2.742   0.011   4.271
   24        1.514   2.742   0.017   4.273
   25        1.514   2.743   0.015   4.272
   26        1.517   2.745   0.013   4.275
   27        1.514   2.743   0.015   4.272
   28        1.516   2.743   0.015   4.274
   29        1.516   2.743   0.015   4.274
   30        1.513   2.747   0.016   4.276
   31        1.517   2.745   0.013   4.275
   32        1.513   2.747   0.016   4.276
   33        1.518   2.742   0.011   4.272
   34        1.514   2.742   0.017   4.273
   35        1.518   2.742   0.011   4.272
   36        1.518   2.742   0.012   4.272
   37        1.518   2.742   0.012   4.272
   38        1.518   2.743   0.012   4.273
   39        1.514   2.742   0.017   4.273
   40        1.518   2.742   0.013   4.273
   41        1.518   2.746   0.012   4.276
   42        1.513   2.747   0.016   4.276
   43        1.515   2.744   0.015   4.274
   44        1.513   2.747   0.016   4.276
   45        1.514   2.744   0.015   4.272
   46        1.515   2.744   0.015   4.274
   47        1.514   2.743   0.015   4.272
   48        1.517   2.746   0.012   4.275
--------------------------------------------------
tot         65.135 100.207  76.090 241.431
 
 BZINTS: Fermi energy:    2.052979;  352.000000 electrons
         Band energy:-0.758691E+03;  BLOECHL correction:    0.000000

 total amount of memory used by VASP MPI-rank0  2782079. kBytes
=======================================================================

   base      :      30000. kBytes
   nonl-proj :     303764. kBytes
   fftplans  :      34720. kBytes
   grid      :      70000. kBytes
   one-center:        746. kBytes
   wavefun   :    2342849. kBytes
 
  
  
 General timing and accounting informations for this job:
 ========================================================
  
                  Total CPU time used (sec):      153.078
                            User time (sec):      147.877
                          System time (sec):        5.201
                         Elapsed time (sec):      154.367
  
                   Maximum memory used (kb):     4343260.
                   Average memory used (kb):           0.
  
                          Minor page faults:       421633
                          Major page faults:            0
                 Voluntary context switches:         2470
