 vasp.6.1.0 28Jan20 (build Jan 13 2021 21:44:47) complex                        
  
 executed on             LinuxIFC date 2021.09.12  19:37:21
 running on    9 total cores
 distrk:  each k-point on    1 cores,    9 groups
 distr:  one band on NCORE=   1 cores,    1 groups


--------------------------------------------------------------------------------------------------------


 INCAR:
 POTCAR:    PAW_PBE Ag 02Apr2005                  
 POTCAR:    PAW_PBE Bi 08Apr2002                  
 POTCAR:    PAW_PBE I 08Apr2002                   
 -----------------------------------------------------------------------------
|                                                                             |
|           W    W    AA    RRRRR   N    N  II  N    N   GGGG   !!!           |
|           W    W   A  A   R    R  NN   N  II  NN   N  G    G  !!!           |
|           W    W  A    A  R    R  N N  N  II  N N  N  G       !!!           |
|           W WW W  AAAAAA  RRRRR   N  N N  II  N  N N  G  GGG   !            |
|           WW  WW  A    A  R   R   N   NN  II  N   NN  G    G                |
|           W    W  A    A  R    R  N    N  II  N    N   GGGG   !!!           |
|                                                                             |
|     For optimal performance we recommend to set                             |
|       NCORE = 4 - approx SQRT(number of cores).                             |
|     NCORE specifies how many cores store one orbital (NPAR=cpu/NCORE).      |
|     This setting can greatly improve the performance of VASP for DFT.       |
|     The default, NCORE=1 might be grossly inefficient on modern             |
|     multi-core architectures or massively parallel machines. Do your        |
|     own testing!!!!                                                         |
|     Unfortunately you need to use the default for GW and RPA                |
|     calculations (for HF NCORE is supported but not extensively tested      |
|     yet).                                                                   |
|                                                                             |
 -----------------------------------------------------------------------------

 POTCAR:    PAW_PBE Ag 02Apr2005                  
   VRHFIN =Ag : s1 d10                                                                              
   LEXCH  = PE                                                                                      
   EATOM  =  1037.2675 eV,   76.2370 Ry                                                             
                                                                                                    
   TITEL  = PAW_PBE Ag 02Apr2005                                                                    
   LULTRA =        F    use ultrasoft PP ?                                                          
   IUNSCR =        1    unscreen: 0-lin 1-nonlin 2-no                                               
   RPACOR =    2.000    partial core radius                                                         
   POMASS =  107.868; ZVAL   =   11.000    mass and valenz                                          
   RCORE  =    2.500    outmost cutoff radius                                                       
   RWIGS  =    2.840; RWIGS  =    1.503    wigner-seitz radius (au A)                               
   ENMAX  =  249.844; ENMIN  =  187.383 eV                                                          
   ICORE  =        3    local potential                                                             
   LCOR   =        T    correct aug charges                                                         
   LPAW   =        T    paw PP                                                                      
   EAUG   =  412.496                                                                                
   DEXC   =    0.000                                                                                
   RMAX   =    2.560    core radius for proj-oper                                                   
   RAUG   =    1.300    factor for augmentation sphere                                              
   RDEP   =    2.576    radius for radial grids                                                     
   RDEPT  =    2.072    core radius for aug-charge                                                  
                                                                                                    
   Atomic configuration                                                                             
   12 entries                                                                                       
     n  l   j            E        occ.                                                              
     1  0  0.50    -25324.9161   2.0000                                                             
     2  0  0.50     -3728.5341   2.0000                                                             
     2  1  1.50     -3344.0404   6.0000                                                             
     3  0  0.50      -683.5581   2.0000                                                             
     3  1  1.50      -557.3225   6.0000                                                             
     3  2  2.50      -358.3853  10.0000                                                             
     4  0  0.50       -95.0341   2.0000                                                             
     4  1  1.50       -58.5511   6.0000                                                             
     4  2  2.50        -7.4440  10.0000                                                             
     5  0  0.50        -4.4045   1.0000                                                             
     5  1  0.50        -1.3606   0.0000                                                             
     4  3  2.50        -1.3606   0.0000                                                             
   Description                                                                                      
     l       E           TYP  RCUT    TYP  RCUT                                                     
     2     -7.4439781     23  2.400                                                                 
     2     -8.8045607     23  2.400                                                                 
     0     -4.4044681     23  2.400                                                                 
     0      1.9520038     23  2.400                                                                 
     1     -1.3605826     23  2.500                                                                 
     1     27.2116520     23  2.500                                                                 
     3     -4.0817478     23  2.400                                                                 
  local pseudopotential read in
  partial core-charges read in
  partial kinetic energy density read in
  atomic valenz-charges read in
  non local Contribution for L=           2  read in
    real space projection operators read in
  non local Contribution for L=           2  read in
    real space projection operators read in
  non local Contribution for L=           0  read in
    real space projection operators read in
  non local Contribution for L=           0  read in
    real space projection operators read in
  non local Contribution for L=           1  read in
    real space projection operators read in
  non local Contribution for L=           1  read in
    real space projection operators read in
    PAW grid and wavefunctions read in
 
   number of l-projection  operators is LMAX  =           6
   number of lm-projection operators is LMMAX =          18
 
 POTCAR:    PAW_PBE Bi 08Apr2002                  
   VRHFIN =Bi:                                                                                      
   LEXCH  = PE                                                                                      
   EATOM  =   150.8133 eV,   11.0845 Ry                                                             
                                                                                                    
   TITEL  = PAW_PBE Bi 08Apr2002                                                                    
   LULTRA =        F    use ultrasoft PP ?                                                          
   IUNSCR =        1    unscreen: 0-lin 1-nonlin 2-no                                               
   RPACOR =    2.200    partial core radius                                                         
   POMASS =  208.980; ZVAL   =    5.000    mass and valenz                                          
   RCORE  =    3.000    outmost cutoff radius                                                       
   RWIGS  =    3.090; RWIGS  =    1.635    wigner-seitz radius (au A)                               
   ENMAX  =  105.037; ENMIN  =   78.777 eV                                                          
   ICORE  =        3    local potential                                                             
   LCOR   =        T    correct aug charges                                                         
   LPAW   =        T    paw PP                                                                      
   EAUG   =  265.427                                                                                
   DEXC   =    0.000                                                                                
   RMAX   =    3.067    core radius for proj-oper                                                   
   RAUG   =    1.300    factor for augmentation sphere                                              
   RDEP   =    3.012    radius for radial grids                                                     
   RDEPT  =    2.604    core radius for aug-charge                                                  
                                                                                                    
   Atomic configuration                                                                             
   17 entries                                                                                       
     n  l   j            E        occ.                                                              
     1  0  0.50    -90639.6582   2.0000                                                             
     2  0  0.50    -16282.4667   2.0000                                                             
     2  1  1.50    -13922.8287   6.0000                                                             
     3  0  0.50     -3930.4763   2.0000                                                             
     3  1  1.50     -3256.7013   6.0000                                                             
     3  2  2.50     -2581.6169  10.0000                                                             
     4  0  0.50      -902.2614   2.0000                                                             
     4  1  1.50      -681.5915   6.0000                                                             
     4  2  2.50      -429.8249  10.0000                                                             
     4  3  3.50      -152.6004  14.0000                                                             
     5  0  0.50      -157.7156   2.0000                                                             
     5  1  1.50       -95.8054   6.0000                                                             
     5  2  2.50       -27.0806  10.0000                                                             
     6  0  0.50       -14.4732   2.0000                                                             
     6  1  1.50        -4.5702   3.0000                                                             
     6  2  2.50        -2.7212   0.0000                                                             
     5  3  2.50        -2.7212   0.0000                                                             
   Description                                                                                      
     l       E           TYP  RCUT    TYP  RCUT                                                     
     0    -14.4732299     23  3.000                                                                 
     0    -12.2452434     23  3.000                                                                 
     1     -4.5701666     23  3.000                                                                 
     1    -13.6058260     23  3.000                                                                 
     2     -2.7211652     23  3.000                                                                 
     3     -1.3605826      7  3.000                                                                 
  local pseudopotential read in
  partial core-charges read in
  partial kinetic energy density read in
  kinetic energy density of atom read in
  atomic valenz-charges read in
  non local Contribution for L=           0  read in
    real space projection operators read in
  non local Contribution for L=           0  read in
    real space projection operators read in
  non local Contribution for L=           1  read in
    real space projection operators read in
  non local Contribution for L=           1  read in
    real space projection operators read in
  non local Contribution for L=           2  read in
    real space projection operators read in
    PAW grid and wavefunctions read in
 
   number of l-projection  operators is LMAX  =           5
   number of lm-projection operators is LMMAX =          13
 
 POTCAR:    PAW_PBE I 08Apr2002                   
   VRHFIN =I : s2p5                                                                                 
   LEXCH  = PE                                                                                      
   EATOM  =   315.8678 eV,   23.2156 Ry                                                             
                                                                                                    
   TITEL  = PAW_PBE I 08Apr2002                                                                     
   LULTRA =        F    use ultrasoft PP ?                                                          
   IUNSCR =        1    unscreen: 0-lin 1-nonlin 2-no                                               
   RPACOR =    2.200    partial core radius                                                         
   POMASS =  126.904; ZVAL   =    7.000    mass and valenz                                          
   RCORE  =    2.300    outmost cutoff radius                                                       
   RWIGS  =    2.810; RWIGS  =    1.487    wigner-seitz radius (au A)                               
   ENMAX  =  175.647; ENMIN  =  131.735 eV                                                          
   ICORE  =        3    local potential                                                             
   LCOR   =        T    correct aug charges                                                         
   LPAW   =        T    paw PP                                                                      
   EAUG   =  370.139                                                                                
   DEXC   =    0.000                                                                                
   RMAX   =    2.359    core radius for proj-oper                                                   
   RAUG   =    1.300    factor for augmentation sphere                                              
   RDEP   =    2.392    radius for radial grids                                                     
   RDEPT  =    2.170    core radius for aug-charge                                                  
                                                                                                    
   Atomic configuration                                                                             
   13 entries                                                                                       
     n  l   j            E        occ.                                                              
     1  0  0.50    -32976.3739   2.0000                                                             
     2  0  0.50     -5094.5933   2.0000                                                             
     2  1  1.50     -4572.0131   6.0000                                                             
     3  0  0.50     -1028.2813   2.0000                                                             
     3  1  1.50      -859.0250   6.0000                                                             
     3  2  2.50      -605.7620  10.0000                                                             
     4  0  0.50      -180.5540   2.0000                                                             
     4  1  1.50      -127.5306   6.0000                                                             
     4  2  2.50       -50.2720  10.0000                                                             
     5  0  0.50       -17.4058   2.0000                                                             
     5  1  0.50        -7.0851   5.0000                                                             
     5  2  1.50        -7.0750   0.0000                                                             
     4  3  2.50        -7.0750   0.0000                                                             
   Description                                                                                      
     l       E           TYP  RCUT    TYP  RCUT                                                     
     0    -17.4058016     23  2.300                                                                 
     0    -18.7663842     23  2.300                                                                 
     1     -7.0850686     23  2.300                                                                 
     1     -4.2150896     23  2.300                                                                 
     2     -7.0750295     23  2.300                                                                 
     3     -1.3605826     23  2.300                                                                 
  local pseudopotential read in
  partial core-charges read in
  partial kinetic energy density read in
  atomic valenz-charges read in
  non local Contribution for L=           0  read in
    real space projection operators read in
  non local Contribution for L=           0  read in
    real space projection operators read in
  non local Contribution for L=           1  read in
    real space projection operators read in
  non local Contribution for L=           1  read in
    real space projection operators read in
  non local Contribution for L=           2  read in
    real space projection operators read in
    PAW grid and wavefunctions read in
 
   number of l-projection  operators is LMAX  =           5
   number of lm-projection operators is LMMAX =          13
 
 -----------------------------------------------------------------------------
|                                                                             |
|               ----> ADVICE to this user running VASP <----                  |
|                                                                             |
|     You have a (more or less) 'large supercell' and for larger cells it     |
|     might be more efficient to use real-space projection operators.         |
|     Therefore, try LREAL= Auto in the INCAR file.                           |
|     Mind: For very accurate calculation, you might also keep the            |
|     reciprocal projection scheme (i.e. LREAL=.FALSE.).                      |
|                                                                             |
 -----------------------------------------------------------------------------

  PAW_PBE Ag 02Apr2005                  :
 energy of atom  1       EATOM=-1037.2675
 kinetic energy error for atom=    0.0686 (will be added to EATOM!!)
  PAW_PBE Bi 08Apr2002                  :
 energy of atom  2       EATOM= -150.8133
 kinetic energy error for atom=    0.0004 (will be added to EATOM!!)
  PAW_PBE I 08Apr2002                   :
 energy of atom  3       EATOM= -315.8678
 kinetic energy error for atom=    0.0044 (will be added to EATOM!!)
 
 
 POSCAR: Generation Seed Number
  positions in direct lattice
  velocities in cartesian coordinates
 exchange correlation table for  LEXCH =        8
   RHO(1)=    0.500       N(1)  =     2000
   RHO(2)=  100.500       N(2)  =     4000
 


--------------------------------------------------------------------------------------------------------


 ion  position               nearest neighbor table
   1  1.000  0.983  0.016-  33 2.97  27 2.97  17 3.05  21 3.05  34 3.40  25 3.41
   2  0.751  0.765  0.018-  47 2.97  21 2.97  27 3.05  31 3.06  23 3.38  48 3.42
   3  0.000  0.483  0.517-  26 2.96  36 2.97  20 3.04  24 3.05  35 3.41  28 3.42
   4  0.250  0.984  0.234-  43 2.97  17 2.97  33 3.06  37 3.06  18 3.38  41 3.39
   5  0.499  0.765  0.234-  31 2.97  37 2.98  43 3.05  47 3.05  39 3.39  32 3.39
   6  0.500  0.265  0.734-  30 2.97  40 2.98  42 3.05  46 3.05  38 3.39  29 3.39
   7  0.250  0.484  0.735-  42 2.97  20 2.98  40 3.06  36 3.06  19 3.38  44 3.38
   8  0.750  0.265  0.516-  46 2.97  24 2.97  30 3.06  26 3.06  22 3.37  45 3.39
   9  0.250  0.248  0.997-  42 3.06  17 3.06  25 3.12  29 3.12  41 3.20  19 3.20
  10  0.500  0.503  0.997-  40 3.06  31 3.06  23 3.12  19 3.12  29 3.20  39 3.20
  11  1.000  0.247  0.252-  26 3.06  33 3.06  45 3.12  41 3.12  35 3.20  25 3.20
  12  1.000  0.747  0.752-  36 3.06  27 3.06  48 3.11  44 3.12  28 3.20  34 3.20
  13  0.500  0.003  0.497-  37 3.06  30 3.06  18 3.12  22 3.12  32 3.20  38 3.20
  14  0.750  0.003  0.753-  46 3.06  21 3.06  34 3.12  38 3.12  48 3.20  22 3.20
  15  0.750  0.502  0.253-  24 3.06  47 3.06  35 3.12  39 3.12  45 3.20  23 3.20
  16  0.250  0.748  0.497-  43 3.06  20 3.06  28 3.12  32 3.12  44 3.20  18 3.20
  17  0.238  0.007  0.001-   4 2.97   1 3.05   9 3.06
  18  0.254  1.000  0.500-  13 3.12  16 3.20   4 3.38
  19  0.254  0.500  0.000-  10 3.12   9 3.20   7 3.38
  20  0.239  0.507  0.501-   7 2.98   3 3.04  16 3.06
  21  0.761  0.998  0.993-   2 2.97   1 3.05  14 3.06
  22  0.746  0.000  0.500-  13 3.12  14 3.20   8 3.37
  23  0.746  0.500  0.000-  10 3.12  15 3.20   2 3.38
  24  0.761  0.498  0.494-   8 2.97   3 3.05  15 3.06
  25  0.004  0.251  0.000-   9 3.12  11 3.20   1 3.41
  26  0.990  0.250  0.493-   3 2.96  11 3.06   8 3.06
  27  0.989  0.751  0.993-   1 2.97   2 3.05  12 3.06
  28  0.004  0.751  0.500-  16 3.12  12 3.20   3 3.42
  29  0.496  0.250  0.001-   9 3.12  10 3.20   6 3.39
  30  0.510  0.243  0.501-   6 2.97  13 3.06   8 3.06
  31  0.511  0.744  0.001-   5 2.97  10 3.06   2 3.06
  32  0.495  0.750  0.501-  16 3.12  13 3.20   5 3.39
  33  0.010  0.007  0.249-   1 2.97   4 3.06  11 3.06
  34  0.996  1.000  0.749-  14 3.12  12 3.20   1 3.40
  35  0.996  0.500  0.249-  15 3.12  11 3.20   3 3.41
  36  0.010  0.507  0.749-   3 2.97  12 3.06   7 3.06
  37  0.489  0.998  0.256-   5 2.98  13 3.06   4 3.06
  38  0.504  0.999  0.750-  14 3.12  13 3.20   6 3.39
  39  0.504  0.499  0.250-  15 3.12  10 3.20   5 3.39
  40  0.490  0.499  0.756-   6 2.98  10 3.06   7 3.06
  41  0.246  0.251  0.250-  11 3.12   9 3.20   4 3.39
  42  0.261  0.251  0.757-   7 2.97   6 3.05   9 3.06
  43  0.261  0.751  0.257-   4 2.97   5 3.05  16 3.06
  44  0.246  0.750  0.750-  12 3.12  16 3.20   7 3.38
  45  0.754  0.250  0.249-  11 3.12  15 3.20   8 3.39
  46  0.739  0.243  0.749-   8 2.97   6 3.05  14 3.06
  47  0.739  0.743  0.250-   2 2.97   5 3.05  15 3.06
  48  0.754  0.750  0.749-  12 3.11  14 3.20   2 3.42
 
 -----------------------------------------------------------------------------
|                                                                             |
|           W    W    AA    RRRRR   N    N  II  N    N   GGGG   !!!           |
|           W    W   A  A   R    R  NN   N  II  NN   N  G    G  !!!           |
|           W    W  A    A  R    R  N N  N  II  N N  N  G       !!!           |
|           W WW W  AAAAAA  RRRRR   N  N N  II  N  N N  G  GGG   !            |
|           WW  WW  A    A  R   R   N   NN  II  N   NN  G    G                |
|           W    W  A    A  R    R  N    N  II  N    N   GGGG   !!!           |
|                                                                             |
|     The determination of the symmetry of your systems shows a strong        |
|     dependence on the tolerance parameter SYMPREC. This is often the        |
|     result of "noise" in the structural parameters (lattice vectors         |
|     and/or ionic positions). Set NWRITE=3 for more details.                 |
|                                                                             |
 -----------------------------------------------------------------------------

  LATTYP: Found a base centered monoclinic cell.
 ALAT       =    17.9414886669
 B/A-ratio  =     0.9998490971
 C/A-ratio  =     2.1214208251
 COS(beta)  =    -0.9428434302
  
  Lattice vectors:
  
 A1 = (   0.0009476034,   0.0007564607,  12.6856050212)
 A2 = (   0.0011090872,  12.6855770569,   0.0011578928)
 A3 = ( -12.6875601884, -25.3736778083, -25.3747136194)


Analysis of symmetry for initial positions (statically):
=====================================================================
 Subroutine PRICEL returns:
 Original cell was already a primitive cell.
 

 Routine SETGRP: Setting up the symmetry group for a 
 base centered monoclinic supercell.


 Subroutine GETGRP returns: Found  1 space group operations
 (whereof  1 operations were pure point group operations)
 out of a pool of  4 trial point group operations.


The static configuration has the point symmetry C_1 .


Analysis of symmetry for dynamics (positions and initial velocities):
=====================================================================
 Subroutine PRICEL returns:
 Original cell was already a primitive cell.
 

 Routine SETGRP: Setting up the symmetry group for a 
 base centered monoclinic supercell.


 Subroutine GETGRP returns: Found  1 space group operations
 (whereof  1 operations were pure point group operations)
 out of a pool of  4 trial point group operations.


The dynamic configuration has the point symmetry C_1 .


 Subroutine INISYM returns: Found  1 space group operations
 (whereof  1 operations are pure point group operations),
 and found     1 'primitive' translations


----------------------------------------------------------------------------------------

                                     Primitive cell                                     

  volume of cell :    2041.0737

  direct lattice vectors                    reciprocal lattice vectors
    12.683446807  0.001010773  0.001187791     0.078842923 -0.000006893 -0.000005889
     0.001109087 12.685577057  0.001157893    -0.000006282  0.078829683 -0.000004700
     0.000947603  0.000756461 12.685605021    -0.000007382 -0.000007195  0.078829509

  length of vectors
    12.683446903 12.685577158 12.685605079     0.078842923  0.078829683  0.078829509

  position of ions in fractional coordinates (direct lattice)
     0.999839043  0.983319158  0.016485846
     0.751058610  0.765369690  0.017602363
     0.000242423  0.482568287  0.517054488
     0.249584609  0.983807100  0.234214222
     0.499462151  0.765100401  0.234490851
     0.499752669  0.265367690  0.734316201
     0.250013686  0.484286142  0.734634123
     0.749770873  0.265223815  0.516263488
     0.249820898  0.247646864  0.997325476
     0.500154622  0.502926506  0.997052031
     0.999904623  0.247483940  0.252475543
     0.999713582  0.747444948  0.752333577
     0.499841094  0.002841716  0.497029425
     0.749940903  0.002642525  0.752625097
     0.750046147  0.502485269  0.252847278
     0.249651641  0.747506311  0.497313458
     0.238445986  0.006881955  0.001167310
     0.254127155  0.999869171  0.500475888
     0.254349186  0.500085724  0.000402979
     0.238504131  0.506716113  0.501463596
     0.761104407  0.998405831  0.993349251
     0.745663307  0.000035327  0.500106122
     0.745908852  0.499801948  0.000340803
     0.761458676  0.498166338  0.493505353
     0.004131415  0.251340973  0.000164828
     0.989638117  0.250311223  0.493233993
     0.989496205  0.750637865  0.993276057
     0.003999545  0.751384300  0.500205979
     0.495575663  0.250459444  0.001431018
     0.510153555  0.243485626  0.501075341
     0.511173673  0.743531782  0.001372306
     0.495406903  0.750383384  0.501421707
     0.010158515  0.006723559  0.249058840
     0.995649091  0.999843358  0.749069096
     0.995707698  0.499795690  0.248984221
     0.009978384  0.506744587  0.749349873
     0.489207880  0.998444930  0.256421751
     0.504185346  0.998788702  0.749519906
     0.504242508  0.498688928  0.249533039
     0.489693816  0.498723255  0.756423290
     0.245660690  0.250578705  0.249598002
     0.261016471  0.251307986  0.756625167
     0.260679100  0.750946072  0.256571166
     0.245634697  0.750273993  0.749548142
     0.754164935  0.250244372  0.249304599
     0.738674856  0.243368717  0.749183212
     0.738667438  0.743211077  0.250070500
     0.754177978  0.750441353  0.748810574

  ion indices of the primitive-cell ions
   primitive index   ion index
                 1           1
                 2           2
                 3           3
                 4           4
                 5           5
                 6           6
                 7           7
                 8           8
                 9           9
                10          10
                11          11
                12          12
                13          13
                14          14
                15          15
                16          16
                17          17
                18          18
                19          19
                20          20
                21          21
                22          22
                23          23
                24          24
                25          25
                26          26
                27          27
                28          28
                29          29
                30          30
                31          31
                32          32
                33          33
                34          34
                35          35
                36          36
                37          37
                38          38
                39          39
                40          40
                41          41
                42          42
                43          43
                44          44
                45          45
                46          46
                47          47
                48          48

----------------------------------------------------------------------------------------

 
 
 KPOINTS: agbii                                   

Automatic generation of k-mesh.
Space group operators:
 irot       det(A)        alpha          n_x          n_y          n_z        tau_x        tau_y        tau_z
    1     1.000000     0.000000     1.000000     0.000000     0.000000     0.000000     0.000000     0.000000
 TETIRR: Found    192 inequivalent tetrahedra from      384
 
 Subroutine IBZKPT returns following result:
 ===========================================
 
 Found     36 irreducible k-points:
 
 Following reciprocal coordinates:
            Coordinates               Weight
  0.000000  0.000000  0.000000      1.000000
  0.250000  0.000000 -0.000000      2.000000
  0.500000  0.000000  0.000000      1.000000
  0.000000  0.250000  0.000000      2.000000
 -0.000000 -0.000000 -0.250000      2.000000
  0.250000  0.250000  0.000000      2.000000
 -0.250000 -0.000000 -0.250000      2.000000
  0.500000  0.250000 -0.000000      2.000000
  0.500000  0.000000 -0.250000      2.000000
 -0.250000  0.250000  0.000000      2.000000
  0.250000  0.000000 -0.250000      2.000000
  0.000000  0.500000 -0.000000      1.000000
 -0.000000 -0.000000  0.500000      1.000000
  0.250000  0.500000  0.000000      2.000000
 -0.250000 -0.000000  0.500000      2.000000
  0.500000  0.500000  0.000000      1.000000
  0.500000  0.000000  0.500000      1.000000
 -0.000000  0.250000  0.250000      2.000000
  0.250000  0.250000  0.250000      2.000000
  0.500000  0.250000  0.250000      2.000000
 -0.250000  0.250000  0.250000      2.000000
  0.000000  0.500000  0.250000      2.000000
 -0.000000 -0.250000  0.500000      2.000000
  0.250000  0.500000  0.250000      2.000000
 -0.250000 -0.250000  0.500000      2.000000
  0.500000  0.500000  0.250000      2.000000
  0.500000 -0.250000  0.500000      2.000000
 -0.250000  0.500000  0.250000      2.000000
  0.250000 -0.250000  0.500000      2.000000
 -0.000000 -0.250000  0.250000      2.000000
  0.250000 -0.250000  0.250000      2.000000
 -0.250000 -0.250000  0.250000      2.000000
  0.500000 -0.250000  0.250000      2.000000
  0.000000  0.500000  0.500000      1.000000
  0.250000  0.500000  0.500000      2.000000
  0.500000  0.500000  0.500000      1.000000
 
 Following cartesian coordinates:
            Coordinates               Weight
  0.000000  0.000000  0.000000      1.000000
  0.019711 -0.000002 -0.000001      2.000000
  0.039421 -0.000003 -0.000003      1.000000
 -0.000002  0.019707 -0.000001      2.000000
  0.000002  0.000002 -0.019707      2.000000
  0.019709  0.019706 -0.000003      2.000000
 -0.019709  0.000004 -0.019706      2.000000
  0.039420  0.019704 -0.000004      2.000000
  0.039423 -0.000002 -0.019710      2.000000
 -0.019712  0.019709  0.000000      2.000000
  0.019713  0.000000 -0.019709      2.000000
 -0.000003  0.039415 -0.000002      1.000000
 -0.000004 -0.000004  0.039415      1.000000
  0.019708  0.039413 -0.000004      2.000000
 -0.019714 -0.000002  0.039416      2.000000
  0.039418  0.039411 -0.000005      1.000000
  0.039418 -0.000007  0.039412      1.000000
 -0.000003  0.019706  0.019706      2.000000
  0.019707  0.019704  0.019705      2.000000
  0.039418  0.019702  0.019703      2.000000
 -0.019714  0.019707  0.019708      2.000000
 -0.000005  0.039413  0.019705      2.000000
 -0.000002 -0.019711  0.039416      2.000000
  0.019706  0.039411  0.019704      2.000000
 -0.019713 -0.019709  0.039417      2.000000
  0.039416  0.039410  0.019702      2.000000
  0.039419 -0.019714  0.039413      2.000000
 -0.019716  0.039415  0.019706      2.000000
  0.019709 -0.019713  0.039414      2.000000
 -0.000000 -0.019709  0.019709      2.000000
  0.019710 -0.019711  0.019707      2.000000
 -0.019711 -0.019707  0.019710      2.000000
  0.039421 -0.019713  0.019706      2.000000
 -0.000007  0.039411  0.039412      1.000000
  0.019704  0.039410  0.039411      2.000000
  0.039415  0.039408  0.039409      1.000000
 


--------------------------------------------------------------------------------------------------------




 Dimension of arrays:
   k-points           NKPTS =     36   k-points in BZ     NKDIM =     36   number of bands    NBANDS=    211
   number of dos      NEDOS =   3000   number of ions     NIONS =     48
   non local maximal  LDIM  =      6   non local SUM 2l+1 LMDIM =     18
   total plane-waves  NPLWV = 125000
   max r-space proj   IRMAX =      1   max aug-charges    IRDMAX=   6033
   dimension x,y,z NGX =    50 NGY =   50 NGZ =   50
   dimension x,y,z NGXF=   100 NGYF=  100 NGZF=  100
   support grid    NGXF=   100 NGYF=  100 NGZF=  100
   ions per type =               8   8  32
   NGX,Y,Z   is equivalent  to a cutoff of   6.55,  6.55,  6.55 a.u.
   NGXF,Y,Z  is equivalent  to a cutoff of  13.11, 13.11, 13.11 a.u.

 SYSTEM =  unknown system                          
 POSCAR =  Generation Seed Number                  

 Startparameter for this run:
   NWRITE =      2    write-flag & timer
   PREC   = normal    normal or accurate (medium, high low for compatibility)
   ISTART =      1    job   : 0-new  1-cont  2-samecut
   ICHARG =      1    charge: 1-file 2-atom 10-const
   ISPIN  =      1    spin polarized calculation?
   LNONCOLLINEAR =      F non collinear calculations
   LSORBIT =      F    spin-orbit coupling
   INIWAV =      1    electr: 0-lowe 1-rand  2-diag
   LASPH  =      F    aspherical Exc in radial PAW
   METAGGA=      F    non-selfconsistent MetaGGA calc.

 Electronic Relaxation 1
   ENCUT  =  250.0 eV  18.37 Ry    4.29 a.u.  16.35 16.35 16.35*2*pi/ulx,y,z
   ENINI  =  250.0     initial cutoff
   ENAUG  =  412.5 eV  augmentation charge cutoff
   NELM   =     60;   NELMIN=  2; NELMDL=  0     # of ELM steps 
   EDIFF  = 0.1E-05   stopping-criterion for ELM
   LREAL  =      F    real-space projection
   NLSPLINE    = F    spline interpolate recip. space projectors
   LCOMPAT=      F    compatible to vasp.4.4
   GGA_COMPAT  = T    GGA compatible to vasp.4.4-vasp.4.6
   LMAXPAW     = -100 max onsite density
   LMAXMIX     =    4 max onsite mixed and CHGCAR
   VOSKOWN=      0    Vosko Wilk Nusair interpolation
   ROPT   =    0.00000   0.00000   0.00000
 Ionic relaxation
   EDIFFG = -.1E-01   stopping-criterion for IOM
   NSW    =      0    number of steps for IOM
   NBLOCK =      1;   KBLOCK =      1    inner block; outer block 
   IBRION =     -1    ionic relax: 0-MD 1-quasi-New 2-CG
   NFREE  =      0    steps in history (QN), initial steepest desc. (CG)
   ISIF   =     -1    stress and relaxation
   IWAVPR =     10    prediction:  0-non 1-charg 2-wave 3-comb
   ISYM   =      2    0-nonsym 1-usesym 2-fastsym
   LCORR  =      T    Harris-Foulkes like correction to forces

   POTIM  = 0.5000    time-step for ionic-motion
   TEIN   =    0.0    initial temperature
   TEBEG  =    0.0;   TEEND  =   0.0 temperature during run
   SMASS  =  -3.00    Nose mass-parameter (am)
   estimated Nose-frequenzy (Omega)   =  0.10E-29 period in steps = 0.13E+47 mass=  -0.368E-26a.u.
   SCALEE = 1.0000    scale energy and forces
   NPACO  =    256;   APACO  = 16.0  distance and # of slots for P.C.
   PSTRESS=    0.0 pullay stress

  Mass of Ions in am
   POMASS = 107.87208.98126.90
  Ionic Valenz
   ZVAL   =  11.00  5.00  7.00
  Atomic Wigner-Seitz radii
   RWIGS  =  -1.00 -1.00 -1.00
  virtual crystal weights 
   VCA    =   1.00  1.00  1.00
   NELECT =     352.0000    total number of electrons
   NUPDOWN=      -1.0000    fix difference up-down

 DOS related values:
   EMIN   =  10.00;   EMAX   =-10.00  energy-range for DOS
   EFERMI =   0.00
   ISMEAR =    -5;   SIGMA  =   0.20  broadening in eV -4-tet -1-fermi 0-gaus

 Electronic relaxation 2 (details)
   IALGO  =     38    algorithm
   LDIAG  =      T    sub-space diagonalisation (order eigenvalues)
   LSUBROT=      F    optimize rotation matrix (better conditioning)
   TURBO    =      0    0=normal 1=particle mesh
   IRESTART =      0    0=no restart 2=restart with 2 vectors
   NREBOOT  =      0    no. of reboots
   NMIN     =      0    reboot dimension
   EREF     =   0.00    reference energy to select bands
   IMIX   =      4    mixing-type and parameters
     AMIX     =   0.40;   BMIX     =  1.00
     AMIX_MAG =   1.60;   BMIX_MAG =  1.00
     AMIN     =   0.10
     WC   =   100.;   INIMIX=   1;  MIXPRE=   1;  MAXMIX= -45

 Intra band minimization:
   WEIMIN = 0.0000     energy-eigenvalue tresh-hold
   EBREAK =  0.12E-08  absolut break condition
   DEPER  =   0.30     relativ break condition  

   TIME   =   0.40     timestep for ELM

  volume/ion in A,a.u.               =      42.52       286.96
  Fermi-wavevector in a.u.,A,eV,Ry     =   0.911247  1.722007 11.297887  0.830371
  Thomas-Fermi vector in A             =   2.035504
 
 Write flags
   LWAVE        =      T    write WAVECAR
   LDOWNSAMPLE  =      F    k-point downsampling of WAVECAR
   LCHARG       =      T    write CHGCAR
   LVTOT        =      F    write LOCPOT, total local potential
   LVHAR        =      F    write LOCPOT, Hartree potential only
   LELF         =      F    write electronic localiz. function (ELF)
   LORBIT       =     10    0 simple, 1 ext, 2 COOP (PROOUT), +10 PAW based schemes


 Dipole corrections
   LMONO  =      F    monopole corrections only (constant potential shift)
   LDIPOL =      F    correct potential (dipole corrections)
   IDIPOL =      0    1-x, 2-y, 3-z, 4-all directions 
   EPSILON=  1.0000000 bulk dielectric constant

 Exchange correlation treatment:
   GGA     =    --    GGA type
   LEXCH   =     8    internal setting for exchange type
   VOSKOWN=      0    Vosko Wilk Nusair interpolation
   LHFCALC =     F    Hartree Fock is set to
   LHFONE  =     F    Hartree Fock one center treatment
   AEXX    =    0.0000 exact exchange contribution

 Linear response parameters
   LEPSILON=     F    determine dielectric tensor
   LRPA    =     F    only Hartree local field effects (RPA)
   LNABLA  =     F    use nabla operator in PAW spheres
   LVEL    =     F    velocity operator in full k-point grid
   LINTERFAST=   F  fast interpolation
   KINTER  =     0    interpolate to denser k-point grid
   CSHIFT  =0.1000    complex shift for real part using Kramers Kronig
   OMEGAMAX=  -1.0    maximum frequency
   DEG_THRESHOLD= 0.2000000E-02 threshold for treating states as degnerate
   RTIME   =   -0.100 relaxation time in fs
  (WPLASMAI=    0.000 imaginary part of plasma frequency in eV, 0.658/RTIME)
   DFIELD  = 0.0000000 0.0000000 0.0000000 field for delta impulse in time
 
 Orbital magnetization related:
   ORBITALMAG=     F  switch on orbital magnetization
   LCHIMAG   =     F  perturbation theory with respect to B field
   DQ        =  0.001000  dq finite difference perturbation B field
   LLRAUG    =     F  two centre corrections for induced B field



--------------------------------------------------------------------------------------------------------


 Static calculation
 charge density and potential will be updated during run
 non-spin polarized calculation
 Variant of blocked Davidson
 Davidson routine will perform the subspace rotation
 perform sub-space diagonalisation
    after iterative eigenvector-optimisation
 modified Broyden-mixing scheme, WC =      100.0
 initial mixing is a Kerker type mixing with AMIX =  0.4000 and BMIX =      1.0000
 Hartree-type preconditioning will be used
 using additional bands           35
 reciprocal scheme for non local part
 use partial core corrections
 calculate Harris-corrections to forces 
   (improved forces if not selfconsistent)
 use gradient corrections 
 use of overlap-Matrix (Vanderbilt PP)
 Fermi weights with tetrahedron method with Bloechl corrections


--------------------------------------------------------------------------------------------------------


  energy-cutoff  :      250.00
  volume of cell :     2041.07
      direct lattice vectors                 reciprocal lattice vectors
    12.683446807  0.001010773  0.001187791     0.078842923 -0.000006893 -0.000005889
     0.001109087 12.685577057  0.001157893    -0.000006282  0.078829683 -0.000004700
     0.000947603  0.000756461 12.685605021    -0.000007382 -0.000007195  0.078829509

  length of vectors
    12.683446903 12.685577158 12.685605079     0.078842923  0.078829683  0.078829509


 
 old parameters found on file WAVECAR:
  energy-cutoff  :      250.00
  volume of cell :     2041.07
      direct lattice vectors                 reciprocal lattice vectors
    12.683446807  0.001010773  0.001187791     0.078842923 -0.000006893 -0.000005889
     0.001109087 12.685577057  0.001157893    -0.000006282  0.078829683 -0.000004700
     0.000947603  0.000756461 12.685605021    -0.000007382 -0.000007195  0.078829509

  length of vectors

 
 k-points in units of 2pi/SCALE and weight: agbii                                   
   0.00000000  0.00000000  0.00000000       0.016
   0.01971073 -0.00000172 -0.00000147       0.031
   0.03942146 -0.00000345 -0.00000294       0.016
  -0.00000157  0.01970742 -0.00000118       0.031
   0.00000185  0.00000180 -0.01970738       0.031
   0.01970916  0.01970570 -0.00000265       0.031
  -0.01970889  0.00000352 -0.01970590       0.031
   0.03941989  0.01970397 -0.00000412       0.031
   0.03942331 -0.00000165 -0.01971032       0.031
  -0.01971230  0.01970914  0.00000030       0.031
   0.01971258  0.00000008 -0.01970885       0.031
  -0.00000314  0.03941484 -0.00000235       0.016
  -0.00000369 -0.00000360  0.03941475       0.016
   0.01970759  0.03941312 -0.00000382       0.031
  -0.01971442 -0.00000187  0.03941623       0.031
   0.03941832  0.03941139 -0.00000529       0.016
   0.03941777 -0.00000704  0.03941181       0.016
  -0.00000342  0.01970562  0.01970620       0.031
   0.01970731  0.01970390  0.01970473       0.031
   0.03941805  0.01970218  0.01970326       0.031
  -0.01971415  0.01970735  0.01970767       0.031
  -0.00000499  0.03941304  0.01970503       0.031
  -0.00000212 -0.01971102  0.03941593       0.031
   0.01970574  0.03941132  0.01970355       0.031
  -0.01971285 -0.01970929  0.03941740       0.031
   0.03941647  0.03940960  0.01970208       0.031
   0.03941934 -0.01971446  0.03941298       0.031
  -0.01971572  0.03941477  0.01970650       0.031
   0.01970861 -0.01971274  0.03941446       0.031
  -0.00000028 -0.01970922  0.01970855       0.031
   0.01971046 -0.01971094  0.01970708       0.031
  -0.01971101 -0.01970750  0.01971002       0.031
   0.03942119 -0.01971267  0.01970561       0.031
  -0.00000683  0.03941124  0.03941240       0.016
   0.01970390  0.03940952  0.03941093       0.031
   0.03941463  0.03940780  0.03940946       0.016
 
 k-points in reciprocal lattice and weights: agbii                                   
   0.00000000  0.00000000  0.00000000       0.016
   0.25000000  0.00000000 -0.00000000       0.031
   0.50000000  0.00000000  0.00000000       0.016
   0.00000000  0.25000000  0.00000000       0.031
  -0.00000000 -0.00000000 -0.25000000       0.031
   0.25000000  0.25000000  0.00000000       0.031
  -0.25000000 -0.00000000 -0.25000000       0.031
   0.50000000  0.25000000 -0.00000000       0.031
   0.50000000  0.00000000 -0.25000000       0.031
  -0.25000000  0.25000000  0.00000000       0.031
   0.25000000  0.00000000 -0.25000000       0.031
   0.00000000  0.50000000 -0.00000000       0.016
  -0.00000000 -0.00000000  0.50000000       0.016
   0.25000000  0.50000000  0.00000000       0.031
  -0.25000000 -0.00000000  0.50000000       0.031
   0.50000000  0.50000000  0.00000000       0.016
   0.50000000  0.00000000  0.50000000       0.016
  -0.00000000  0.25000000  0.25000000       0.031
   0.25000000  0.25000000  0.25000000       0.031
   0.50000000  0.25000000  0.25000000       0.031
  -0.25000000  0.25000000  0.25000000       0.031
   0.00000000  0.50000000  0.25000000       0.031
  -0.00000000 -0.25000000  0.50000000       0.031
   0.25000000  0.50000000  0.25000000       0.031
  -0.25000000 -0.25000000  0.50000000       0.031
   0.50000000  0.50000000  0.25000000       0.031
   0.50000000 -0.25000000  0.50000000       0.031
  -0.25000000  0.50000000  0.25000000       0.031
   0.25000000 -0.25000000  0.50000000       0.031
  -0.00000000 -0.25000000  0.25000000       0.031
   0.25000000 -0.25000000  0.25000000       0.031
  -0.25000000 -0.25000000  0.25000000       0.031
   0.50000000 -0.25000000  0.25000000       0.031
   0.00000000  0.50000000  0.50000000       0.016
   0.25000000  0.50000000  0.50000000       0.031
   0.50000000  0.50000000  0.50000000       0.016
 
 position of ions in fractional coordinates (direct lattice) 
   0.99983904  0.98331916  0.01648585
   0.75105861  0.76536969  0.01760236
   0.00024242  0.48256829  0.51705449
   0.24958461  0.98380710  0.23421422
   0.49946215  0.76510040  0.23449085
   0.49975267  0.26536769  0.73431620
   0.25001369  0.48428614  0.73463412
   0.74977087  0.26522382  0.51626349
   0.24982090  0.24764686  0.99732548
   0.50015462  0.50292651  0.99705203
   0.99990462  0.24748394  0.25247554
   0.99971358  0.74744495  0.75233358
   0.49984109  0.00284172  0.49702943
   0.74994090  0.00264252  0.75262510
   0.75004615  0.50248527  0.25284728
   0.24965164  0.74750631  0.49731346
   0.23844599  0.00688196  0.00116731
   0.25412716  0.99986917  0.50047589
   0.25434919  0.50008572  0.00040298
   0.23850413  0.50671611  0.50146360
   0.76110441  0.99840583  0.99334925
   0.74566331  0.00003533  0.50010612
   0.74590885  0.49980195  0.00034080
   0.76145868  0.49816634  0.49350535
   0.00413142  0.25134097  0.00016483
   0.98963812  0.25031122  0.49323399
   0.98949621  0.75063787  0.99327606
   0.00399955  0.75138430  0.50020598
   0.49557566  0.25045944  0.00143102
   0.51015355  0.24348563  0.50107534
   0.51117367  0.74353178  0.00137231
   0.49540690  0.75038338  0.50142171
   0.01015851  0.00672356  0.24905884
   0.99564909  0.99984336  0.74906910
   0.99570770  0.49979569  0.24898422
   0.00997838  0.50674459  0.74934987
   0.48920788  0.99844493  0.25642175
   0.50418535  0.99878870  0.74951991
   0.50424251  0.49868893  0.24953304
   0.48969382  0.49872326  0.75642329
   0.24566069  0.25057871  0.24959800
   0.26101647  0.25130799  0.75662517
   0.26067910  0.75094607  0.25657117
   0.24563470  0.75027399  0.74954814
   0.75416493  0.25024437  0.24930460
   0.73867486  0.24336872  0.74918321
   0.73866744  0.74321108  0.25007050
   0.75417798  0.75044135  0.74881057
 
 position of ions in cartesian coordinates  (Angst):
  12.68251152 12.47499403  0.21145910
   9.52687747  9.70992865  0.22507494
   0.00409994  6.12204857  6.55970806
   3.16690618 12.48059022  2.97258471
   6.33597240  9.70642232  2.97613748
   6.33957655  3.36740290  9.31614616
   3.17226854  6.14425760  9.32013604
   9.51046235  3.36566553  6.55031237
   3.16980980  3.14255033 12.65226055
   6.34518715  6.38117273 12.64938466
  12.68275083  3.14067826  3.20427926
  12.68135594  9.48335008  9.54585952
   6.34018207  0.03693002  6.30571597
   9.51255167  0.03484930  9.54839855
   9.51396730  6.37526500  3.20899342
   3.16774362  9.48317744  6.30988417
   3.02432572  0.08754347  0.01509922
   3.22479145 12.68455287  6.35029903
   3.22657939  6.34413338  0.00599319
   3.02609164  6.42860670  6.36223913
   9.65547588 12.66687484 12.60329633
   9.45805483  0.00158016  6.34503447
   9.46124989  6.34103033  0.00578800
   9.65894077  6.32067045  6.26189526
   0.05267950  3.18840958  0.00238688
  12.55276742  3.17671572  6.25843693
  12.55199624  9.52402601 12.60235221
   0.05203537  9.53212586  6.34629025
   6.28588670  3.17772457  0.01903198
   6.47125035  3.08965036  6.35733174
   6.48427003  9.43264743  0.01887663
   6.28477449  9.51992629  6.36229503
   0.12908845  0.08549089  3.15948192
  12.63008102 12.68516298  9.50473502
  12.62979588  6.34139152  3.16027688
   0.12783242  6.42892445  9.50655512
   6.20619247 12.66653855  3.25460223
   6.39662600 12.67128764  9.50986883
   6.39632257  6.32685526  3.16665394
   6.21227538  6.32765946  9.59684621
   3.11633872  3.17917259  3.16688361
   3.31158423  3.18882301  9.59884903
   3.30738549  9.52664183  3.25593962
   3.11703700  9.51847384  9.50963217
   9.56592462  3.17544515  3.16376522
   9.36992309  3.08858597  9.50500151
   9.36991041  9.42899719  3.17403353
   9.56711814  9.52111036  9.50087992
 


--------------------------------------------------------------------------------------------------------


 k-point   1 :   0.0000 0.0000 0.0000  plane waves:   18325
 k-point   2 :   0.2500 0.0000-0.0000  plane waves:   18309
 k-point   3 :   0.5000 0.0000 0.0000  plane waves:   18368
 k-point   4 :   0.0000 0.2500 0.0000  plane waves:   18309
 k-point   5 :  -0.0000-0.0000-0.2500  plane waves:   18309
 k-point   6 :   0.2500 0.2500 0.0000  plane waves:   18355
 k-point   7 :  -0.2500-0.0000-0.2500  plane waves:   18355
 k-point   8 :   0.5000 0.2500-0.0000  plane waves:   18328
 k-point   9 :   0.5000 0.0000-0.2500  plane waves:   18328
 k-point  10 :  -0.2500 0.2500 0.0000  plane waves:   18355
 k-point  11 :   0.2500 0.0000-0.2500  plane waves:   18355
 k-point  12 :   0.0000 0.5000-0.0000  plane waves:   18368
 k-point  13 :  -0.0000-0.0000 0.5000  plane waves:   18368
 k-point  14 :   0.2500 0.5000 0.0000  plane waves:   18328
 k-point  15 :  -0.2500-0.0000 0.5000  plane waves:   18328
 k-point  16 :   0.5000 0.5000 0.0000  plane waves:   18278
 k-point  17 :   0.5000 0.0000 0.5000  plane waves:   18278
 k-point  18 :  -0.0000 0.2500 0.2500  plane waves:   18355
 k-point  19 :   0.2500 0.2500 0.2500  plane waves:   18331
 k-point  20 :   0.5000 0.2500 0.2500  plane waves:   18320
 k-point  21 :  -0.2500 0.2500 0.2500  plane waves:   18331
 k-point  22 :   0.0000 0.5000 0.2500  plane waves:   18328
 k-point  23 :  -0.0000-0.2500 0.5000  plane waves:   18328
 k-point  24 :   0.2500 0.5000 0.2500  plane waves:   18317
 k-point  25 :  -0.2500-0.2500 0.5000  plane waves:   18317
 k-point  26 :   0.5000 0.5000 0.2500  plane waves:   18276
 k-point  27 :   0.5000-0.2500 0.5000  plane waves:   18276
 k-point  28 :  -0.2500 0.5000 0.2500  plane waves:   18317
 k-point  29 :   0.2500-0.2500 0.5000  plane waves:   18317
 k-point  30 :  -0.0000-0.2500 0.2500  plane waves:   18355
 k-point  31 :   0.2500-0.2500 0.2500  plane waves:   18331
 k-point  32 :  -0.2500-0.2500 0.2500  plane waves:   18331
 k-point  33 :   0.5000-0.2500 0.2500  plane waves:   18322
 k-point  34 :   0.0000 0.5000 0.5000  plane waves:   18280
 k-point  35 :   0.2500 0.5000 0.5000  plane waves:   18276
 k-point  36 :   0.5000 0.5000 0.5000  plane waves:   18336

 maximum and minimum number of plane-waves per node :     18368    18276

 maximum number of plane-waves:     18368
 maximum index in each direction: 
   IXMAX=   16   IYMAX=   16   IZMAX=   16
   IXMIN=  -16   IYMIN=  -16   IZMIN=  -16


 serial   3D FFT for wavefunctions
 parallel 3D FFT for charge:
    minimum data exchange during FFTs selected (reduces bandwidth)


 total amount of memory used by VASP MPI-rank0  2748304. kBytes
=======================================================================

   base      :      30000. kBytes
   nonl-proj :     299765. kBytes
   fftplans  :      34720. kBytes
   grid      :      70000. kBytes
   one-center:        746. kBytes
   wavefun   :    2313073. kBytes
 
     INWAV:  cpu time    4.5476: real time    5.9172
 Broyden mixing: mesh for mixing (old mesh)
   NGX = 33   NGY = 33   NGZ = 33
  (NGX  =100   NGY  =100   NGZ  =100)
  gives a total of  35937 points

 initial charge density was supplied:
 number of electron     352.0000000 magnetization 
 keeping initial charge density in first step


--------------------------------------------------------------------------------------------------------


 Maximum index for augmentation-charges         5664 (set IRDMAX)


--------------------------------------------------------------------------------------------------------


 First call to EWALD:  gamma=   0.140
 Maximum number of real-space cells 3x 3x 3
 Maximum number of reciprocal cells 3x 3x 3

    FEWALD:  cpu time    0.0026: real time    0.0026


--------------------------------------- Iteration      1(   1)  ---------------------------------------


    POTLOK:  cpu time    0.5768: real time    0.5952
    SETDIJ:  cpu time    0.0277: real time    0.0277
     EDDAV:  cpu time   55.2553: real time   55.2600
 BZINTS: Fermi energy:    1.972707;  352.000000 electrons
         Band energy:-0.733435E+03;  BLOECHL correction:    0.000000
       DOS:  cpu time    0.0552: real time    0.0552
    CHARGE:  cpu time    1.2173: real time    1.2174
    MIXING:  cpu time    0.0282: real time    0.0282
    --------------------------------------------
      LOOP:  cpu time   57.1606: real time   57.1837

 eigenvalue-minimisations  : 10168
 total energy-change (2. order) :-0.1201177E+03  (-0.2296913E-06)
 number of electron     352.0000000 magnetization 
 augmentation part      -23.1165485 magnetization 

 Broyden mixing:
  rms(total) = 0.60417E-03    rms(broyden)= 0.60414E-03
  rms(prec ) = 0.68968E-03
  weight for this iteration     100.00

 Free energy of the ion-electron system (eV)
  ---------------------------------------------------
  alpha Z        PSCENC =       228.16341002
  Ewald energy   TEWEN  =    -13986.40468095
  -Hartree energ DENC   =     -5990.64073252
  -exchange      EXHF   =         0.00000000
  -V(xc)+E(xc)   XCENC  =     -1392.20789065
  PAW double counting   =     22649.92579902   -20507.24213627
  entropy T*S    EENTRO =         0.00000000
  eigenvalues    EBANDS =      -733.43523795
  atomic energy  EATOM  =     19611.72375700
  Solvation  Ediel_sol  =         0.00000000
  ---------------------------------------------------
  free energy    TOTEN  =      -120.11771231 eV

  energy without entropy =     -120.11771231  energy(sigma->0) =     -120.11771231


--------------------------------------------------------------------------------------------------------




--------------------------------------- Iteration      1(   2)  ---------------------------------------


    POTLOK:  cpu time    0.5615: real time    0.5616
    SETDIJ:  cpu time    0.0588: real time    0.0588
     EDDAV:  cpu time   47.5077: real time   47.5116
 BZINTS: Fermi energy:    1.972867;  352.000000 electrons
         Band energy:-0.733430E+03;  BLOECHL correction:    0.000000
       DOS:  cpu time    0.0526: real time    0.0526
    --------------------------------------------
      LOOP:  cpu time   48.1804: real time   48.1845

 eigenvalue-minimisations  :  8202
 total energy-change (2. order) : 0.3017740E-06  (-0.8837412E-07)
 number of electron     352.0000000 magnetization 
 augmentation part      -23.1165485 magnetization 

 Free energy of the ion-electron system (eV)
  ---------------------------------------------------
  alpha Z        PSCENC =       228.16341002
  Ewald energy   TEWEN  =    -13986.40468095
  -Hartree energ DENC   =     -5990.64573955
  -exchange      EXHF   =         0.00000000
  -V(xc)+E(xc)   XCENC  =     -1392.20748460
  PAW double counting   =     22649.48961707   -20506.80660872
  entropy T*S    EENTRO =         0.00000000
  eigenvalues    EBANDS =      -733.42998226
  atomic energy  EATOM  =     19611.72375700
  Solvation  Ediel_sol  =         0.00000000
  ---------------------------------------------------
  free energy    TOTEN  =      -120.11771200 eV

  energy without entropy =     -120.11771200  energy(sigma->0) =     -120.11771200


--------------------------------------------------------------------------------------------------------




 average (electrostatic) potential at core
  the test charge radii are     1.1249  1.4024  1.1875
  (the norm of the test charge is              1.0000)
       1 -75.0269       2 -75.0259       3 -75.0295       4 -75.0243       5 -75.0221
       6 -75.0221       7 -75.0221       8 -75.0226       9 -65.4062      10 -65.4051
      11 -65.4053      12 -65.4055      13 -65.4057      14 -65.4057      15 -65.4065
      16 -65.4067      17 -93.0859      18 -93.1607      19 -93.1602      20 -93.0872
      21 -93.0863      22 -93.1605      23 -93.1595      24 -93.0876      25 -93.1513
      26 -93.0830      27 -93.0871      28 -93.1529      29 -93.1503      30 -93.0806
      31 -93.0785      32 -93.1520      33 -93.0845      34 -93.1527      35 -93.1528
      36 -93.0838      37 -93.0804      38 -93.1526      39 -93.1528      40 -93.0794
      41 -93.1578      42 -93.0887      43 -93.0896      44 -93.1586      45 -93.1581
      46 -93.0859      47 -93.0877      48 -93.1535
 
 
 
 E-fermi :   1.9729     XC(G=0):  -7.8506     alpha+bet : -7.8420


 k-point     1 :       0.0000    0.0000    0.0000
  band No.  band energies     occupation 
      1     -10.7468      2.00000
      2     -10.6447      2.00000
      3     -10.4172      2.00000
      4     -10.4166      2.00000
      5     -10.4043      2.00000
      6     -10.4024      2.00000
      7     -10.0187      2.00000
      8     -10.0048      2.00000
      9      -9.8171      2.00000
     10      -9.7278      2.00000
     11      -9.7248      2.00000
     12      -9.7166      2.00000
     13      -9.7040      2.00000
     14      -9.7002      2.00000
     15      -9.6990      2.00000
     16      -9.6817      2.00000
     17      -9.6754      2.00000
     18      -9.6612      2.00000
     19      -9.6387      2.00000
     20      -9.6269      2.00000
     21      -9.6244      2.00000
     22      -9.6112      2.00000
     23      -9.6057      2.00000
     24      -9.5570      2.00000
     25      -9.5532      2.00000
     26      -9.5512      2.00000
     27      -9.5275      2.00000
     28      -9.5264      2.00000
     29      -9.5254      2.00000
     30      -9.5229      2.00000
     31      -9.5170      2.00000
     32      -9.5158      2.00000
     33      -8.1384      2.00000
     34      -8.1256      2.00000
     35      -7.7691      2.00000
     36      -7.7689      2.00000
     37      -7.7674      2.00000
     38      -7.7669      2.00000
     39      -7.5507      2.00000
     40      -7.4371      2.00000
     41      -1.7367      2.00000
     42      -1.6692      2.00000
     43      -1.6239      2.00000
     44      -1.6121      2.00000
     45      -1.5051      2.00000
     46      -1.4693      2.00000
     47      -1.4166      2.00000
     48      -1.4122      2.00000
     49      -1.3687      2.00000
     50      -1.3668      2.00000
     51      -1.2771      2.00000
     52      -1.2743      2.00000
     53      -1.2106      2.00000
     54      -1.2036      2.00000
     55      -1.1986      2.00000
     56      -1.1939      2.00000
     57      -1.1732      2.00000
     58      -1.1687      2.00000
     59      -1.1650      2.00000
     60      -1.1508      2.00000
     61      -1.1260      2.00000
     62      -1.0257      2.00000
     63      -1.0048      2.00000
     64      -0.9878      2.00000
     65      -0.9849      2.00000
     66      -0.9787      2.00000
     67      -0.9390      2.00000
     68      -0.9329      2.00000
     69      -0.9282      2.00000
     70      -0.9168      2.00000
     71      -0.8461      2.00000
     72      -0.8316      2.00000
     73      -0.8179      2.00000
     74      -0.8137      2.00000
     75      -0.8009      2.00000
     76      -0.7930      2.00000
     77      -0.7904      2.00000
     78      -0.7299      2.00000
     79      -0.6928      2.00000
     80      -0.6805      2.00000
     81      -0.6766      2.00000
     82      -0.6750      2.00000
     83      -0.5721      2.00000
     84      -0.5652      2.00000
     85      -0.5634      2.00000
     86      -0.5014      2.00000
     87      -0.4513      2.00000
     88      -0.4449      2.00000
     89      -0.4442      2.00000
     90      -0.4409      2.00000
     91      -0.4085      2.00000
     92      -0.3877      2.00000
     93      -0.3493      2.00000
     94      -0.3299      2.00000
     95      -0.3083      2.00000
     96      -0.3052      2.00000
     97      -0.2985      2.00000
     98      -0.2969      2.00000
     99      -0.2821      2.00000
    100      -0.2639      2.00000
    101      -0.1964      2.00000
    102      -0.1951      2.00000
    103      -0.1848      2.00000
    104      -0.1624      2.00000
    105      -0.1607      2.00000
    106      -0.1587      2.00000
    107      -0.1211      2.00000
    108      -0.1083      2.00000
    109      -0.0805      2.00000
    110      -0.0516      2.00000
    111      -0.0499      2.00000
    112      -0.0339      2.00000
    113       0.0684      2.00000
    114       0.0925      2.00000
    115       0.1582      2.00000
    116       0.2016      2.00000
    117       0.2710      2.00000
    118       0.2741      2.00000
    119       0.3648      2.00000
    120       0.3736      2.00000
    121       0.3937      2.00000
    122       0.3985      2.00000
    123       0.4244      2.00000
    124       0.4574      2.00000
    125       0.4893      2.00000
    126       0.4905      2.00000
    127       0.5027      2.00000
    128       0.5664      2.00000
    129       0.5715      2.00000
    130       0.5953      2.00000
    131       0.6317      2.00000
    132       0.7005      2.00000
    133       0.7031      2.00000
    134       0.7211      2.00000
    135       0.7263      2.00000
    136       0.7568      2.00000
    137       0.7707      2.00000
    138       0.7981      2.00000
    139       0.8842      2.00000
    140       0.8909      2.00000
    141       0.8951      2.00000
    142       0.9378      2.00000
    143       0.9394      2.00000
    144       0.9429      2.00000
    145       0.9516      2.00000
    146       0.9528      2.00000
    147       0.9727      2.00000
    148       0.9795      2.00000
    149       0.9920      2.00000
    150       0.9926      2.00000
    151       1.1194      2.00000
    152       1.1303      2.00000
    153       1.1576      2.00000
    154       1.1923      2.00000
    155       1.1933      2.00000
    156       1.2633      2.00000
    157       1.2676      2.00000
    158       1.2771      2.00000
    159       1.3207      2.00000
    160       1.3777      2.00000
    161       1.4084      2.00000
    162       1.5656      2.00000
    163       1.5692      2.00000
    164       1.6232      2.00000
    165       1.7190      2.00000
    166       1.7221      2.00000
    167       1.7881      2.00000
    168       1.7965      2.00000
    169       1.8273      2.00000
    170       1.8364      2.00000
    171       1.9002      2.00000
    172       1.9062      2.00000
    173       1.9283      2.00000
    174       1.9323      2.00000
    175       1.9706      2.00000
    176       1.9726      2.00000
    177       4.0027      0.00000
    178       4.1185      0.00000
    179       4.1573      0.00000
    180       4.1596      0.00000
    181       4.3469      0.00000
    182       4.3911      0.00000
    183       4.3946      0.00000
    184       4.4410      0.00000
    185       4.5199      0.00000
    186       4.5944      0.00000
    187       4.5996      0.00000
    188       4.6151      0.00000
    189       4.6206      0.00000
    190       4.6314      0.00000
    191       4.6794      0.00000
    192       4.7264      0.00000
    193       4.7279      0.00000
    194       4.7970      0.00000
    195       4.8035      0.00000
    196       4.8698      0.00000
    197       4.8723      0.00000
    198       4.8871      0.00000
    199       4.9921      0.00000
    200       5.0971      0.00000
    201       5.2635      0.00000
    202       5.5136      0.00000
    203       5.5764      0.00000
    204       5.5858      0.00000
    205       5.9287      0.00000
    206       5.9341      0.00000
    207       5.9904      0.00000
    208       6.0113      0.00000
    209       7.2604      0.00000
    210       7.2892      0.00000
    211       7.3065      0.00000

 k-point     2 :       0.2500    0.0000   -0.0000
  band No.  band energies     occupation 
      1     -10.7223      2.00000
      2     -10.6283      2.00000
      3     -10.5409      2.00000
      4     -10.5086      2.00000
      5     -10.3106      2.00000
      6     -10.2568      2.00000
      7     -10.0808      2.00000
      8     -10.0357      2.00000
      9      -9.7750      2.00000
     10      -9.7563      2.00000
     11      -9.7308      2.00000
     12      -9.7178      2.00000
     13      -9.7077      2.00000
     14      -9.6997      2.00000
     15      -9.6892      2.00000
     16      -9.6792      2.00000
     17      -9.6650      2.00000
     18      -9.6567      2.00000
     19      -9.6340      2.00000
     20      -9.6333      2.00000
     21      -9.6237      2.00000
     22      -9.6161      2.00000
     23      -9.5702      2.00000
     24      -9.5687      2.00000
     25      -9.5540      2.00000
     26      -9.5413      2.00000
     27      -9.5394      2.00000
     28      -9.5331      2.00000
     29      -9.5270      2.00000
     30      -9.5253      2.00000
     31      -9.5214      2.00000
     32      -9.5175      2.00000
     33      -8.1036      2.00000
     34      -8.1004      2.00000
     35      -7.9077      2.00000
     36      -7.8898      2.00000
     37      -7.6675      2.00000
     38      -7.6336      2.00000
     39      -7.5619      2.00000
     40      -7.4596      2.00000
     41      -1.6876      2.00000
     42      -1.6387      2.00000
     43      -1.6013      2.00000
     44      -1.5891      2.00000
     45      -1.4908      2.00000
     46      -1.4760      2.00000
     47      -1.4580      2.00000
     48      -1.4453      2.00000
     49      -1.4423      2.00000
     50      -1.4388      2.00000
     51      -1.3773      2.00000
     52      -1.3367      2.00000
     53      -1.2366      2.00000
     54      -1.2101      2.00000
     55      -1.2082      2.00000
     56      -1.1687      2.00000
     57      -1.1557      2.00000
     58      -1.1435      2.00000
     59      -1.1151      2.00000
     60      -1.0899      2.00000
     61      -1.0706      2.00000
     62      -1.0352      2.00000
     63      -0.9864      2.00000
     64      -0.9748      2.00000
     65      -0.9496      2.00000
     66      -0.9443      2.00000
     67      -0.9386      2.00000
     68      -0.9179      2.00000
     69      -0.9101      2.00000
     70      -0.8584      2.00000
     71      -0.8431      2.00000
     72      -0.8405      2.00000
     73      -0.8125      2.00000
     74      -0.7924      2.00000
     75      -0.7841      2.00000
     76      -0.7817      2.00000
     77      -0.7590      2.00000
     78      -0.7495      2.00000
     79      -0.6984      2.00000
     80      -0.6971      2.00000
     81      -0.6617      2.00000
     82      -0.6242      2.00000
     83      -0.5918      2.00000
     84      -0.5759      2.00000
     85      -0.5549      2.00000
     86      -0.5362      2.00000
     87      -0.5343      2.00000
     88      -0.4874      2.00000
     89      -0.4567      2.00000
     90      -0.4406      2.00000
     91      -0.4250      2.00000
     92      -0.4077      2.00000
     93      -0.3794      2.00000
     94      -0.3435      2.00000
     95      -0.3287      2.00000
     96      -0.3137      2.00000
     97      -0.3100      2.00000
     98      -0.2994      2.00000
     99      -0.2960      2.00000
    100      -0.2586      2.00000
    101      -0.2148      2.00000
    102      -0.2126      2.00000
    103      -0.2070      2.00000
    104      -0.1894      2.00000
    105      -0.1818      2.00000
    106      -0.1667      2.00000
    107      -0.1537      2.00000
    108      -0.1479      2.00000
    109      -0.1476      2.00000
    110      -0.1018      2.00000
    111      -0.0708      2.00000
    112       0.0189      2.00000
    113       0.1269      2.00000
    114       0.1467      2.00000
    115       0.1710      2.00000
    116       0.2519      2.00000
    117       0.3014      2.00000
    118       0.3096      2.00000
    119       0.3142      2.00000
    120       0.3259      2.00000
    121       0.3786      2.00000
    122       0.4443      2.00000
    123       0.4561      2.00000
    124       0.5061      2.00000
    125       0.5149      2.00000
    126       0.5691      2.00000
    127       0.5910      2.00000
    128       0.6084      2.00000
    129       0.6357      2.00000
    130       0.6368      2.00000
    131       0.6389      2.00000
    132       0.6676      2.00000
    133       0.7250      2.00000
    134       0.7273      2.00000
    135       0.7423      2.00000
    136       0.7633      2.00000
    137       0.7880      2.00000
    138       0.8198      2.00000
    139       0.8308      2.00000
    140       0.9043      2.00000
    141       0.9083      2.00000
    142       0.9098      2.00000
    143       0.9218      2.00000
    144       0.9256      2.00000
    145       0.9470      2.00000
    146       0.9485      2.00000
    147       0.9898      2.00000
    148       0.9966      2.00000
    149       1.0169      2.00000
    150       1.1062      2.00000
    151       1.1257      2.00000
    152       1.1289      2.00000
    153       1.1324      2.00000
    154       1.1351      2.00000
    155       1.2346      2.00000
    156       1.2568      2.00000
    157       1.2635      2.00000
    158       1.2722      2.00000
    159       1.3415      2.00000
    160       1.3654      2.00000
    161       1.4007      2.00000
    162       1.4676      2.00000
    163       1.5449      2.00000
    164       1.5624      2.00000
    165       1.6384      2.00000
    166       1.7108      2.00000
    167       1.7244      2.00000
    168       1.7304      2.00000
    169       1.8528      2.00000
    170       1.8546      2.00000
    171       1.8881      2.00000
    172       1.9038      2.00000
    173       1.9056      2.00000
    174       1.9499      2.00000
    175       1.9629      2.00000
    176       1.9721      2.00000
    177       4.0757      0.00000
    178       4.1437      0.00000
    179       4.1960      0.00000
    180       4.2093      0.00000
    181       4.3086      0.00000
    182       4.3344      0.00000
    183       4.4561      0.00000
    184       4.4642      0.00000
    185       4.4705      0.00000
    186       4.5498      0.00000
    187       4.5647      0.00000
    188       4.5824      0.00000
    189       4.6218      0.00000
    190       4.6230      0.00000
    191       4.6516      0.00000
    192       4.7026      0.00000
    193       4.7421      0.00000
    194       4.8025      0.00000
    195       4.8401      0.00000
    196       4.8430      0.00000
    197       4.8880      0.00000
    198       4.9182      0.00000
    199       4.9781      0.00000
    200       5.0582      0.00000
    201       5.3430      0.00000
    202       5.4986      0.00000
    203       5.5647      0.00000
    204       5.6635      0.00000
    205       5.9093      0.00000
    206       5.9627      0.00000
    207       5.9771      0.00000
    208       6.0184      0.00000
    209       7.3553      0.00000
    210       7.4024      0.00000
    211       7.4072      0.00000

 k-point     3 :       0.5000    0.0000    0.0000
  band No.  band energies     occupation 
      1     -10.6521      2.00000
      2     -10.6505      2.00000
      3     -10.5818      2.00000
      4     -10.5804      2.00000
      5     -10.1945      2.00000
      6     -10.1943      2.00000
      7     -10.1254      2.00000
      8     -10.1252      2.00000
      9      -9.7581      2.00000
     10      -9.7566      2.00000
     11      -9.7162      2.00000
     12      -9.7145      2.00000
     13      -9.7126      2.00000
     14      -9.7114      2.00000
     15      -9.6965      2.00000
     16      -9.6962      2.00000
     17      -9.6501      2.00000
     18      -9.6481      2.00000
     19      -9.6403      2.00000
     20      -9.6390      2.00000
     21      -9.5962      2.00000
     22      -9.5942      2.00000
     23      -9.5796      2.00000
     24      -9.5780      2.00000
     25      -9.5403      2.00000
     26      -9.5392      2.00000
     27      -9.5383      2.00000
     28      -9.5368      2.00000
     29      -9.5367      2.00000
     30      -9.5350      2.00000
     31      -9.5250      2.00000
     32      -9.5231      2.00000
     33      -8.0265      2.00000
     34      -8.0240      2.00000
     35      -8.0125      2.00000
     36      -8.0101      2.00000
     37      -7.5993      2.00000
     38      -7.5984      2.00000
     39      -7.5269      2.00000
     40      -7.5261      2.00000
     41      -1.5625      2.00000
     42      -1.5620      2.00000
     43      -1.5571      2.00000
     44      -1.5520      2.00000
     45      -1.5329      2.00000
     46      -1.5317      2.00000
     47      -1.5118      2.00000
     48      -1.5100      2.00000
     49      -1.4829      2.00000
     50      -1.4799      2.00000
     51      -1.4506      2.00000
     52      -1.4482      2.00000
     53      -1.2624      2.00000
     54      -1.2621      2.00000
     55      -1.1481      2.00000
     56      -1.1453      2.00000
     57      -1.1178      2.00000
     58      -1.1172      2.00000
     59      -1.0653      2.00000
     60      -1.0594      2.00000
     61      -1.0241      2.00000
     62      -1.0207      2.00000
     63      -0.9754      2.00000
     64      -0.9736      2.00000
     65      -0.9521      2.00000
     66      -0.9489      2.00000
     67      -0.9379      2.00000
     68      -0.9342      2.00000
     69      -0.8114      2.00000
     70      -0.8112      2.00000
     71      -0.8054      2.00000
     72      -0.8018      2.00000
     73      -0.7991      2.00000
     74      -0.7970      2.00000
     75      -0.7842      2.00000
     76      -0.7836      2.00000
     77      -0.7412      2.00000
     78      -0.7371      2.00000
     79      -0.6815      2.00000
     80      -0.6804      2.00000
     81      -0.6672      2.00000
     82      -0.6662      2.00000
     83      -0.6147      2.00000
     84      -0.6131      2.00000
     85      -0.6125      2.00000
     86      -0.6056      2.00000
     87      -0.5629      2.00000
     88      -0.5607      2.00000
     89      -0.4027      2.00000
     90      -0.4001      2.00000
     91      -0.3984      2.00000
     92      -0.3969      2.00000
     93      -0.3843      2.00000
     94      -0.3825      2.00000
     95      -0.3806      2.00000
     96      -0.3793      2.00000
     97      -0.3040      2.00000
     98      -0.3013      2.00000
     99      -0.2987      2.00000
    100      -0.2946      2.00000
    101      -0.2443      2.00000
    102      -0.2385      2.00000
    103      -0.2064      2.00000
    104      -0.2018      2.00000
    105      -0.2002      2.00000
    106      -0.1953      2.00000
    107      -0.1660      2.00000
    108      -0.1649      2.00000
    109      -0.1467      2.00000
    110      -0.1452      2.00000
    111      -0.0483      2.00000
    112      -0.0423      2.00000
    113       0.2144      2.00000
    114       0.2158      2.00000
    115       0.2196      2.00000
    116       0.2224      2.00000
    117       0.2668      2.00000
    118       0.2672      2.00000
    119       0.3132      2.00000
    120       0.3150      2.00000
    121       0.4751      2.00000
    122       0.4831      2.00000
    123       0.5047      2.00000
    124       0.5054      2.00000
    125       0.5846      2.00000
    126       0.5857      2.00000
    127       0.5897      2.00000
    128       0.5916      2.00000
    129       0.6856      2.00000
    130       0.6884      2.00000
    131       0.7101      2.00000
    132       0.7119      2.00000
    133       0.7374      2.00000
    134       0.7398      2.00000
    135       0.7641      2.00000
    136       0.7657      2.00000
    137       0.8376      2.00000
    138       0.8394      2.00000
    139       0.8408      2.00000
    140       0.8419      2.00000
    141       0.9057      2.00000
    142       0.9098      2.00000
    143       0.9180      2.00000
    144       0.9190      2.00000
    145       0.9318      2.00000
    146       0.9321      2.00000
    147       0.9960      2.00000
    148       1.0001      2.00000
    149       1.0982      2.00000
    150       1.0993      2.00000
    151       1.1405      2.00000
    152       1.1478      2.00000
    153       1.1573      2.00000
    154       1.1595      2.00000
    155       1.1647      2.00000
    156       1.1666      2.00000
    157       1.3165      2.00000
    158       1.3185      2.00000
    159       1.3617      2.00000
    160       1.3623      2.00000
    161       1.4301      2.00000
    162       1.4369      2.00000
    163       1.4466      2.00000
    164       1.4479      2.00000
    165       1.6142      2.00000
[...]
    143       0.9736      2.00000
    144       0.9768      2.00000
    145       0.9825      2.00000
    146       0.9833      2.00000
    147       1.1043      2.00000
    148       1.1062      2.00000
    149       1.1337      2.00000
    150       1.1351      2.00000
    151       1.1618      2.00000
    152       1.1644      2.00000
    153       1.2024      2.00000
    154       1.2044      2.00000
    155       1.2057      2.00000
    156       1.2067      2.00000
    157       1.2915      2.00000
    158       1.2938      2.00000
    159       1.3242      2.00000
    160       1.3247      2.00000
    161       1.6615      2.00000
    162       1.6705      2.00000
    163       1.6743      2.00000
    164       1.6751      2.00000
    165       1.7455      2.00000
    166       1.7483      2.00000
    167       1.7689      2.00000
    168       1.7693      2.00000
    169       1.7790      2.00000
    170       1.7794      2.00000
    171       1.8022      2.00000
    172       1.8052      2.00000
    173       1.8298      2.00000
    174       1.8312      2.00000
    175       1.8967      2.00000
    176       1.9020      2.00000
    177       4.0279      0.00000
    178       4.0308      0.00000
    179       4.0748      0.00000
    180       4.0763      0.00000
    181       4.2314      0.00000
    182       4.2341      0.00000
    183       4.3450      0.00000
    184       4.3467      0.00000
    185       4.3602      0.00000
    186       4.3616      0.00000
    187       4.4461      0.00000
    188       4.4499      0.00000
    189       4.7171      0.00000
    190       4.7184      0.00000
    191       4.8472      0.00000
    192       4.8492      0.00000
    193       4.8647      0.00000
    194       4.8655      0.00000
    195       4.8687      0.00000
    196       4.8693      0.00000
    197       5.0107      0.00000
    198       5.0127      0.00000
    199       5.0852      0.00000
    200       5.0900      0.00000
    201       5.5800      0.00000
    202       5.5876      0.00000
    203       5.6557      0.00000
    204       5.6648      0.00000
    205       5.7237      0.00000
    206       5.7301      0.00000
    207       5.7816      0.00000
    208       5.7883      0.00000
    209       7.4001      0.00000
    210       7.4021      0.00000
    211       7.5220      0.00000

 k-point    36 :       0.5000    0.5000    0.5000
  band No.  band energies     occupation 
      1     -10.6158      2.00000
      2     -10.6153      2.00000
      3     -10.6141      2.00000
      4     -10.6135      2.00000
      5     -10.1753      2.00000
      6     -10.1749      2.00000
      7     -10.1748      2.00000
      8     -10.1742      2.00000
      9      -9.7286      2.00000
     10      -9.7279      2.00000
     11      -9.7277      2.00000
     12      -9.7269      2.00000
     13      -9.6931      2.00000
     14      -9.6916      2.00000
     15      -9.6908      2.00000
     16      -9.6905      2.00000
     17      -9.6075      2.00000
     18      -9.6063      2.00000
     19      -9.6059      2.00000
     20      -9.6057      2.00000
     21      -9.6049      2.00000
     22      -9.6045      2.00000
     23      -9.6033      2.00000
     24      -9.6027      2.00000
     25      -9.5625      2.00000
     26      -9.5615      2.00000
     27      -9.5602      2.00000
     28      -9.5583      2.00000
     29      -9.5375      2.00000
     30      -9.5372      2.00000
     31      -9.5362      2.00000
     32      -9.5332      2.00000
     33      -8.0246      2.00000
     34      -8.0236      2.00000
     35      -8.0219      2.00000
     36      -8.0214      2.00000
     37      -7.5597      2.00000
     38      -7.5592      2.00000
     39      -7.5587      2.00000
     40      -7.5582      2.00000
     41      -1.5708      2.00000
     42      -1.5678      2.00000
     43      -1.5661      2.00000
     44      -1.5660      2.00000
     45      -1.5375      2.00000
     46      -1.5364      2.00000
     47      -1.5361      2.00000
     48      -1.5348      2.00000
     49      -1.4721      2.00000
     50      -1.4719      2.00000
     51      -1.4710      2.00000
     52      -1.4702      2.00000
     53      -1.1763      2.00000
     54      -1.1756      2.00000
     55      -1.1724      2.00000
     56      -1.1697      2.00000
     57      -1.0870      2.00000
     58      -1.0866      2.00000
     59      -1.0860      2.00000
     60      -1.0853      2.00000
     61      -1.0655      2.00000
     62      -1.0648      2.00000
     63      -1.0591      2.00000
     64      -1.0571      2.00000
     65      -0.9383      2.00000
     66      -0.9334      2.00000
     67      -0.9301      2.00000
     68      -0.9286      2.00000
     69      -0.8385      2.00000
     70      -0.8373      2.00000
     71      -0.8368      2.00000
     72      -0.8324      2.00000
     73      -0.8105      2.00000
     74      -0.8101      2.00000
     75      -0.8096      2.00000
     76      -0.8061      2.00000
     77      -0.7413      2.00000
     78      -0.7398      2.00000
     79      -0.7394      2.00000
     80      -0.7373      2.00000
     81      -0.6527      2.00000
     82      -0.6506      2.00000
     83      -0.6502      2.00000
     84      -0.6498      2.00000
     85      -0.4903      2.00000
     86      -0.4897      2.00000
     87      -0.4886      2.00000
     88      -0.4871      2.00000
     89      -0.3744      2.00000
     90      -0.3715      2.00000
     91      -0.3707      2.00000
     92      -0.3682      2.00000
     93      -0.3102      2.00000
     94      -0.3081      2.00000
     95      -0.3069      2.00000
     96      -0.3052      2.00000
     97      -0.2631      2.00000
     98      -0.2622      2.00000
     99      -0.2603      2.00000
    100      -0.2602      2.00000
    101      -0.1599      2.00000
    102      -0.1585      2.00000
    103      -0.1570      2.00000
    104      -0.1566      2.00000
    105      -0.1494      2.00000
    106      -0.1470      2.00000
    107      -0.1465      2.00000
    108      -0.1437      2.00000
    109      -0.0764      2.00000
    110      -0.0722      2.00000
    111      -0.0712      2.00000
    112      -0.0708      2.00000
    113       0.1251      2.00000
    114       0.1255      2.00000
    115       0.1281      2.00000
    116       0.1298      2.00000
    117       0.3014      2.00000
    118       0.3037      2.00000
    119       0.3049      2.00000
    120       0.3058      2.00000
    121       0.3485      2.00000
    122       0.3500      2.00000
    123       0.3511      2.00000
    124       0.3559      2.00000
    125       0.5181      2.00000
    126       0.5189      2.00000
    127       0.5196      2.00000
    128       0.5209      2.00000
    129       0.6058      2.00000
    130       0.6069      2.00000
    131       0.6085      2.00000
    132       0.6099      2.00000
    133       0.6671      2.00000
    134       0.6675      2.00000
    135       0.6680      2.00000
    136       0.6730      2.00000
    137       0.8166      2.00000
    138       0.8177      2.00000
    139       0.8222      2.00000
    140       0.8234      2.00000
    141       0.9162      2.00000
    142       0.9170      2.00000
    143       0.9173      2.00000
    144       0.9184      2.00000
    145       1.0542      2.00000
    146       1.0556      2.00000
    147       1.0568      2.00000
    148       1.0572      2.00000
    149       1.1404      2.00000
    150       1.1418      2.00000
    151       1.1422      2.00000
    152       1.1440      2.00000
    153       1.1840      2.00000
    154       1.1863      2.00000
    155       1.1887      2.00000
    156       1.1888      2.00000
    157       1.3028      2.00000
    158       1.3046      2.00000
    159       1.3051      2.00000
    160       1.3055      2.00000
    161       1.6622      2.00000
    162       1.6716      2.00000
    163       1.6748      2.00000
    164       1.6757      2.00000
    165       1.7684      2.00000
    166       1.7724      2.00000
    167       1.7758      2.00000
    168       1.7765      2.00000
    169       1.8060      2.00000
    170       1.8086      2.00000
    171       1.8105      2.00000
    172       1.8110      2.00000
    173       1.8982      2.00000
    174       1.9007      2.00000
    175       1.9013      2.00000
    176       1.9047      2.00000
    177       4.0151      0.00000
    178       4.0164      0.00000
    179       4.0183      0.00000
    180       4.0190      0.00000
    181       4.2412      0.00000
    182       4.2436      0.00000
    183       4.2447      0.00000
    184       4.2453      0.00000
    185       4.3785      0.00000
    186       4.3827      0.00000
    187       4.3840      0.00000
    188       4.3851      0.00000
    189       4.7829      0.00000
    190       4.7842      0.00000
    191       4.7853      0.00000
    192       4.7866      0.00000
    193       4.8993      0.00000
    194       4.9004      0.00000
    195       4.9013      0.00000
    196       4.9019      0.00000
    197       5.0636      0.00000
    198       5.0643      0.00000
    199       5.0667      0.00000
    200       5.0690      0.00000
    201       5.5900      0.00000
    202       5.5926      0.00000
    203       5.6000      0.00000
    204       5.6005      0.00000
    205       5.7146      0.00000
    206       5.7168      0.00000
    207       5.7219      0.00000
    208       5.7241      0.00000
    209       7.5322      0.00000
    210       7.5336      0.00000
    211       7.5352      0.00000


--------------------------------------------------------------------------------------------------------


 soft charge-density along one line, spin component           1
         0         1         2         3         4         5         6         7         8         9
 total charge-density along one line
 
 pseudopotential strength for first ion, spin component:           1
 -6.435   0.000  -0.000   0.001   0.000  -6.571   0.000  -0.000
  0.000  -6.440   0.001   0.000  -0.001   0.000  -6.575   0.001
 -0.000   0.001  -6.431  -0.000  -0.003  -0.000   0.001  -6.566
  0.001   0.000  -0.000  -6.435   0.000   0.001   0.000  -0.000
  0.000  -0.001  -0.003   0.000  -6.428   0.000  -0.001  -0.002
 -6.571   0.000  -0.000   0.001   0.000  -6.675   0.000  -0.000
  0.000  -6.575   0.001   0.000  -0.001   0.000  -6.680   0.001
 -0.000   0.001  -6.566  -0.000  -0.002  -0.000   0.001  -6.671
  0.001   0.000  -0.000  -6.571   0.000   0.001   0.000  -0.000
  0.000  -0.001  -0.002   0.000  -6.564   0.000  -0.001  -0.002
  0.000   0.001  -0.000   0.000   0.000   0.000   0.001  -0.000
  0.001   0.001  -0.000   0.001   0.000   0.001   0.001  -0.000
 -0.000  -0.006  -0.004   0.000  -0.007  -0.000  -0.006  -0.004
  0.000   0.006  -0.008  -0.000   0.000   0.000   0.006  -0.008
  0.006   0.000   0.000  -0.006  -0.000   0.006   0.000   0.000
 -0.000  -0.008  -0.005   0.000  -0.008  -0.000  -0.007  -0.004
  0.000   0.008  -0.010  -0.000   0.000   0.000   0.007  -0.009
  0.008   0.000   0.000  -0.008  -0.000   0.007   0.000   0.000
 total augmentation occupancy for first ion, spin component:           1
  2.301   0.015  -0.044  -0.018  -0.003  -0.316  -0.016   0.045   0.009   0.007  -0.060   0.013   0.011   0.002  -0.049  -0.001
  0.015   2.276   0.073   0.015  -0.125  -0.016  -0.292  -0.072  -0.017   0.124  -0.138   0.024   0.042  -0.043   0.000  -0.005
 -0.044   0.073   3.994   0.026  -0.146   0.045  -0.073  -1.838  -0.030   0.141   0.068  -0.008  -0.086  -0.191  -0.004   0.003
 -0.018   0.015   0.026   2.301   0.033   0.009  -0.017  -0.030  -0.316  -0.032  -0.058   0.012  -0.002  -0.011   0.049   0.000
 -0.003  -0.125  -0.146   0.033   4.152   0.007   0.125   0.141  -0.032  -1.991  -0.125   0.016  -0.173   0.012  -0.003   0.006
 -0.316  -0.016   0.045   0.009   0.007   0.313   0.018  -0.046  -0.002  -0.010   0.054  -0.013  -0.009  -0.002   0.037   0.001
 -0.016  -0.292  -0.073  -0.017   0.125   0.018   0.290   0.072   0.018  -0.124   0.125  -0.027  -0.030   0.030  -0.000   0.002
  0.045  -0.072  -1.838  -0.030   0.141  -0.046   0.072   1.683   0.033  -0.135  -0.061   0.011   0.080   0.176   0.004  -0.005
  0.009  -0.017  -0.030  -0.316  -0.032  -0.002   0.018   0.033   0.313   0.032   0.052  -0.013   0.001   0.010  -0.037  -0.000
  0.007   0.124   0.141  -0.032  -1.991  -0.010  -0.124  -0.135   0.032   1.830   0.112  -0.020   0.159  -0.010   0.003  -0.010
 -0.060  -0.138   0.068  -0.058  -0.125   0.054   0.125  -0.061   0.052   0.112   1.439  -0.308  -0.049   0.049   0.000   0.004
  0.013   0.024  -0.008   0.012   0.016  -0.013  -0.027   0.011  -0.013  -0.020  -0.308   0.070   0.010  -0.010  -0.000  -0.001
  0.011   0.042  -0.086  -0.002  -0.173  -0.009  -0.030   0.080   0.001   0.159  -0.049   0.010   0.085   0.009   0.003  -0.006
  0.002  -0.043  -0.191  -0.011   0.012  -0.002   0.030   0.176   0.010  -0.010   0.049  -0.010   0.009   0.085   0.003  -0.001
 -0.049   0.000  -0.004   0.049  -0.003   0.037  -0.000   0.004  -0.037   0.003   0.000  -0.000   0.003   0.003   0.098  -0.000
 -0.001  -0.005   0.003   0.000   0.006   0.001   0.002  -0.005  -0.000  -0.010   0.004  -0.001  -0.006  -0.001  -0.000   0.000
 -0.000   0.005   0.006   0.001  -0.000   0.000  -0.002  -0.011  -0.001   0.000  -0.004   0.001  -0.001  -0.006  -0.000   0.000
  0.005  -0.000   0.000  -0.005   0.000  -0.002   0.000  -0.000   0.002  -0.000  -0.000   0.000  -0.000  -0.000  -0.007   0.000


------------------------ aborting loop because EDIFF is reached ----------------------------------------


 


 total charge     
 
# of ion       s       p       d       tot
------------------------------------------
    1        0.241   0.152   9.319   9.713
    2        0.241   0.151   9.320   9.712
    3        0.242   0.152   9.319   9.713
    4        0.240   0.151   9.320   9.711
    5        0.240   0.151   9.320   9.712
    6        0.241   0.151   9.320   9.712
    7        0.240   0.150   9.321   9.711
    8        0.240   0.151   9.320   9.711
    9        1.834   1.403   0.138   3.375
   10        1.834   1.403   0.138   3.375
   11        1.834   1.403   0.138   3.375
   12        1.834   1.403   0.138   3.375
   13        1.834   1.403   0.138   3.375
   14        1.834   1.403   0.138   3.375
   15        1.834   1.403   0.138   3.375
   16        1.834   1.403   0.138   3.375
   17        1.515   2.742   0.016   4.273
   18        1.518   2.744   0.012   4.274
   19        1.518   2.744   0.012   4.274
   20        1.515   2.742   0.016   4.273
   21        1.515   2.742   0.016   4.273
   22        1.518   2.744   0.012   4.274
   23        1.518   2.744   0.012   4.274
   24        1.515   2.742   0.016   4.273
   25        1.518   2.744   0.012   4.274
   26        1.515   2.743   0.016   4.273
   27        1.514   2.743   0.016   4.273
   28        1.518   2.744   0.012   4.274
   29        1.518   2.744   0.012   4.274
   30        1.515   2.743   0.016   4.273
   31        1.515   2.743   0.016   4.273
   32        1.518   2.744   0.012   4.274
   33        1.515   2.743   0.016   4.273
   34        1.518   2.744   0.012   4.274
   35        1.518   2.744   0.012   4.274
   36        1.515   2.743   0.016   4.273
   37        1.515   2.743   0.016   4.273
   38        1.518   2.744   0.012   4.274
   39        1.518   2.744   0.012   4.274
   40        1.515   2.743   0.016   4.273
   41        1.518   2.744   0.012   4.274
   42        1.515   2.743   0.016   4.273
   43        1.515   2.743   0.016   4.273
   44        1.518   2.744   0.012   4.274
   45        1.518   2.744   0.012   4.274
   46        1.515   2.743   0.016   4.273
   47        1.515   2.743   0.016   4.273
   48        1.518   2.744   0.012   4.274
--------------------------------------------------
tot         65.118 100.222  76.107 241.447
 


--------------------------------------------------------------------------------------------------------



  FREE ENERGIE OF THE ION-ELECTRON SYSTEM (eV)
  ---------------------------------------------------
  free  energy   TOTEN  =      -120.11771200 eV

  energy  without entropy=     -120.11771200  energy(sigma->0) =     -120.11771200
 


--------------------------------------------------------------------------------------------------------




--------------------------------------------------------------------------------------------------------


 writing wavefunctions
     LOOP+:  cpu time  110.2239: real time  110.4899
    4ORBIT:  cpu time    0.0000: real time    0.0000
 


 total charge     
 
# of ion       s       p       d       tot
------------------------------------------
    1        0.241   0.152   9.319   9.713
    2        0.241   0.151   9.320   9.712
    3        0.242   0.152   9.319   9.713
    4        0.240   0.151   9.320   9.711
    5        0.240   0.151   9.320   9.712
    6        0.241   0.151   9.320   9.712
    7        0.240   0.150   9.321   9.711
    8        0.240   0.151   9.320   9.711
    9        1.834   1.403   0.138   3.375
   10        1.834   1.403   0.138   3.375
   11        1.834   1.403   0.138   3.375
   12        1.834   1.403   0.138   3.375
   13        1.834   1.403   0.138   3.375
   14        1.834   1.403   0.138   3.375
   15        1.834   1.403   0.138   3.375
   16        1.834   1.403   0.138   3.375
   17        1.515   2.742   0.016   4.273
   18        1.518   2.744   0.012   4.274
   19        1.518   2.744   0.012   4.274
   20        1.515   2.742   0.016   4.273
   21        1.515   2.742   0.016   4.273
   22        1.518   2.744   0.012   4.274
   23        1.518   2.744   0.012   4.274
   24        1.515   2.742   0.016   4.273
   25        1.518   2.744   0.012   4.274
   26        1.515   2.743   0.016   4.273
   27        1.514   2.743   0.016   4.273
   28        1.518   2.744   0.012   4.274
   29        1.518   2.744   0.012   4.274
   30        1.515   2.743   0.016   4.273
   31        1.515   2.743   0.016   4.273
   32        1.518   2.744   0.012   4.274
   33        1.515   2.743   0.016   4.273
   34        1.518   2.744   0.012   4.274
   35        1.518   2.744   0.012   4.274
   36        1.515   2.743   0.016   4.273
   37        1.515   2.743   0.016   4.273
   38        1.518   2.744   0.012   4.274
   39        1.518   2.744   0.012   4.274
   40        1.515   2.743   0.016   4.273
   41        1.518   2.744   0.012   4.274
   42        1.515   2.743   0.016   4.273
   43        1.515   2.743   0.016   4.273
   44        1.518   2.744   0.012   4.274
   45        1.518   2.744   0.012   4.274
   46        1.515   2.743   0.016   4.273
   47        1.515   2.743   0.016   4.273
   48        1.518   2.744   0.012   4.274
--------------------------------------------------
tot         65.118 100.222  76.107 241.447
 
 BZINTS: Fermi energy:    1.972867;  352.000000 electrons
         Band energy:-0.733430E+03;  BLOECHL correction:    0.000000

 total amount of memory used by VASP MPI-rank0  2748304. kBytes
=======================================================================

   base      :      30000. kBytes
   nonl-proj :     299765. kBytes
   fftplans  :      34720. kBytes
   grid      :      70000. kBytes
   one-center:        746. kBytes
   wavefun   :    2313073. kBytes
 
  
  
 General timing and accounting informations for this job:
 ========================================================
  
                  Total CPU time used (sec):      150.000
                            User time (sec):      144.736
                          System time (sec):        5.264
                         Elapsed time (sec):      152.604
  
                   Maximum memory used (kb):     4300860.
                   Average memory used (kb):           0.
  
                          Minor page faults:       416702
                          Major page faults:            0
                 Voluntary context switches:         2341
