 vasp.6.1.0 28Jan20 (build Jan 13 2021 21:44:47) complex                        
  
 executed on             LinuxIFC date 2021.09.12  19:33:09
 running on    9 total cores
 distrk:  each k-point on    1 cores,    9 groups
 distr:  one band on NCORE=   1 cores,    1 groups


--------------------------------------------------------------------------------------------------------


 INCAR:
 POTCAR:    PAW_PBE Ag 02Apr2005                  
 POTCAR:    PAW_PBE Bi 08Apr2002                  
 POTCAR:    PAW_PBE I 08Apr2002                   
 -----------------------------------------------------------------------------
|                                                                             |
|           W    W    AA    RRRRR   N    N  II  N    N   GGGG   !!!           |
|           W    W   A  A   R    R  NN   N  II  NN   N  G    G  !!!           |
|           W    W  A    A  R    R  N N  N  II  N N  N  G       !!!           |
|           W WW W  AAAAAA  RRRRR   N  N N  II  N  N N  G  GGG   !            |
|           WW  WW  A    A  R   R   N   NN  II  N   NN  G    G                |
|           W    W  A    A  R    R  N    N  II  N    N   GGGG   !!!           |
|                                                                             |
|     For optimal performance we recommend to set                             |
|       NCORE = 4 - approx SQRT(number of cores).                             |
|     NCORE specifies how many cores store one orbital (NPAR=cpu/NCORE).      |
|     This setting can greatly improve the performance of VASP for DFT.       |
|     The default, NCORE=1 might be grossly inefficient on modern             |
|     multi-core architectures or massively parallel machines. Do your        |
|     own testing!!!!                                                         |
|     Unfortunately you need to use the default for GW and RPA                |
|     calculations (for HF NCORE is supported but not extensively tested      |
|     yet).                                                                   |
|                                                                             |
 -----------------------------------------------------------------------------

 POTCAR:    PAW_PBE Ag 02Apr2005                  
   VRHFIN =Ag : s1 d10                                                                              
   LEXCH  = PE                                                                                      
   EATOM  =  1037.2675 eV,   76.2370 Ry                                                             
                                                                                                    
   TITEL  = PAW_PBE Ag 02Apr2005                                                                    
   LULTRA =        F    use ultrasoft PP ?                                                          
   IUNSCR =        1    unscreen: 0-lin 1-nonlin 2-no                                               
   RPACOR =    2.000    partial core radius                                                         
   POMASS =  107.868; ZVAL   =   11.000    mass and valenz                                          
   RCORE  =    2.500    outmost cutoff radius                                                       
   RWIGS  =    2.840; RWIGS  =    1.503    wigner-seitz radius (au A)                               
   ENMAX  =  249.844; ENMIN  =  187.383 eV                                                          
   ICORE  =        3    local potential                                                             
   LCOR   =        T    correct aug charges                                                         
   LPAW   =        T    paw PP                                                                      
   EAUG   =  412.496                                                                                
   DEXC   =    0.000                                                                                
   RMAX   =    2.560    core radius for proj-oper                                                   
   RAUG   =    1.300    factor for augmentation sphere                                              
   RDEP   =    2.576    radius for radial grids                                                     
   RDEPT  =    2.072    core radius for aug-charge                                                  
                                                                                                    
   Atomic configuration                                                                             
   12 entries                                                                                       
     n  l   j            E        occ.                                                              
     1  0  0.50    -25324.9161   2.0000                                                             
     2  0  0.50     -3728.5341   2.0000                                                             
     2  1  1.50     -3344.0404   6.0000                                                             
     3  0  0.50      -683.5581   2.0000                                                             
     3  1  1.50      -557.3225   6.0000                                                             
     3  2  2.50      -358.3853  10.0000                                                             
     4  0  0.50       -95.0341   2.0000                                                             
     4  1  1.50       -58.5511   6.0000                                                             
     4  2  2.50        -7.4440  10.0000                                                             
     5  0  0.50        -4.4045   1.0000                                                             
     5  1  0.50        -1.3606   0.0000                                                             
     4  3  2.50        -1.3606   0.0000                                                             
   Description                                                                                      
     l       E           TYP  RCUT    TYP  RCUT                                                     
     2     -7.4439781     23  2.400                                                                 
     2     -8.8045607     23  2.400                                                                 
     0     -4.4044681     23  2.400                                                                 
     0      1.9520038     23  2.400                                                                 
     1     -1.3605826     23  2.500                                                                 
     1     27.2116520     23  2.500                                                                 
     3     -4.0817478     23  2.400                                                                 
  local pseudopotential read in
  partial core-charges read in
  partial kinetic energy density read in
  atomic valenz-charges read in
  non local Contribution for L=           2  read in
    real space projection operators read in
  non local Contribution for L=           2  read in
    real space projection operators read in
  non local Contribution for L=           0  read in
    real space projection operators read in
  non local Contribution for L=           0  read in
    real space projection operators read in
  non local Contribution for L=           1  read in
    real space projection operators read in
  non local Contribution for L=           1  read in
    real space projection operators read in
    PAW grid and wavefunctions read in
 
   number of l-projection  operators is LMAX  =           6
   number of lm-projection operators is LMMAX =          18
 
 POTCAR:    PAW_PBE Bi 08Apr2002                  
   VRHFIN =Bi:                                                                                      
   LEXCH  = PE                                                                                      
   EATOM  =   150.8133 eV,   11.0845 Ry                                                             
                                                                                                    
   TITEL  = PAW_PBE Bi 08Apr2002                                                                    
   LULTRA =        F    use ultrasoft PP ?                                                          
   IUNSCR =        1    unscreen: 0-lin 1-nonlin 2-no                                               
   RPACOR =    2.200    partial core radius                                                         
   POMASS =  208.980; ZVAL   =    5.000    mass and valenz                                          
   RCORE  =    3.000    outmost cutoff radius                                                       
   RWIGS  =    3.090; RWIGS  =    1.635    wigner-seitz radius (au A)                               
   ENMAX  =  105.037; ENMIN  =   78.777 eV                                                          
   ICORE  =        3    local potential                                                             
   LCOR   =        T    correct aug charges                                                         
   LPAW   =        T    paw PP                                                                      
   EAUG   =  265.427                                                                                
   DEXC   =    0.000                                                                                
   RMAX   =    3.067    core radius for proj-oper                                                   
   RAUG   =    1.300    factor for augmentation sphere                                              
   RDEP   =    3.012    radius for radial grids                                                     
   RDEPT  =    2.604    core radius for aug-charge                                                  
                                                                                                    
   Atomic configuration                                                                             
   17 entries                                                                                       
     n  l   j            E        occ.                                                              
     1  0  0.50    -90639.6582   2.0000                                                             
     2  0  0.50    -16282.4667   2.0000                                                             
     2  1  1.50    -13922.8287   6.0000                                                             
     3  0  0.50     -3930.4763   2.0000                                                             
     3  1  1.50     -3256.7013   6.0000                                                             
     3  2  2.50     -2581.6169  10.0000                                                             
     4  0  0.50      -902.2614   2.0000                                                             
     4  1  1.50      -681.5915   6.0000                                                             
     4  2  2.50      -429.8249  10.0000                                                             
     4  3  3.50      -152.6004  14.0000                                                             
     5  0  0.50      -157.7156   2.0000                                                             
     5  1  1.50       -95.8054   6.0000                                                             
     5  2  2.50       -27.0806  10.0000                                                             
     6  0  0.50       -14.4732   2.0000                                                             
     6  1  1.50        -4.5702   3.0000                                                             
     6  2  2.50        -2.7212   0.0000                                                             
     5  3  2.50        -2.7212   0.0000                                                             
   Description                                                                                      
     l       E           TYP  RCUT    TYP  RCUT                                                     
     0    -14.4732299     23  3.000                                                                 
     0    -12.2452434     23  3.000                                                                 
     1     -4.5701666     23  3.000                                                                 
     1    -13.6058260     23  3.000                                                                 
     2     -2.7211652     23  3.000                                                                 
     3     -1.3605826      7  3.000                                                                 
  local pseudopotential read in
  partial core-charges read in
  partial kinetic energy density read in
  kinetic energy density of atom read in
  atomic valenz-charges read in
  non local Contribution for L=           0  read in
    real space projection operators read in
  non local Contribution for L=           0  read in
    real space projection operators read in
  non local Contribution for L=           1  read in
    real space projection operators read in
  non local Contribution for L=           1  read in
    real space projection operators read in
  non local Contribution for L=           2  read in
    real space projection operators read in
    PAW grid and wavefunctions read in
 
   number of l-projection  operators is LMAX  =           5
   number of lm-projection operators is LMMAX =          13
 
 POTCAR:    PAW_PBE I 08Apr2002                   
   VRHFIN =I : s2p5                                                                                 
   LEXCH  = PE                                                                                      
   EATOM  =   315.8678 eV,   23.2156 Ry                                                             
                                                                                                    
   TITEL  = PAW_PBE I 08Apr2002                                                                     
   LULTRA =        F    use ultrasoft PP ?                                                          
   IUNSCR =        1    unscreen: 0-lin 1-nonlin 2-no                                               
   RPACOR =    2.200    partial core radius                                                         
   POMASS =  126.904; ZVAL   =    7.000    mass and valenz                                          
   RCORE  =    2.300    outmost cutoff radius                                                       
   RWIGS  =    2.810; RWIGS  =    1.487    wigner-seitz radius (au A)                               
   ENMAX  =  175.647; ENMIN  =  131.735 eV                                                          
   ICORE  =        3    local potential                                                             
   LCOR   =        T    correct aug charges                                                         
   LPAW   =        T    paw PP                                                                      
   EAUG   =  370.139                                                                                
   DEXC   =    0.000                                                                                
   RMAX   =    2.359    core radius for proj-oper                                                   
   RAUG   =    1.300    factor for augmentation sphere                                              
   RDEP   =    2.392    radius for radial grids                                                     
   RDEPT  =    2.170    core radius for aug-charge                                                  
                                                                                                    
   Atomic configuration                                                                             
   13 entries                                                                                       
     n  l   j            E        occ.                                                              
     1  0  0.50    -32976.3739   2.0000                                                             
     2  0  0.50     -5094.5933   2.0000                                                             
     2  1  1.50     -4572.0131   6.0000                                                             
     3  0  0.50     -1028.2813   2.0000                                                             
     3  1  1.50      -859.0250   6.0000                                                             
     3  2  2.50      -605.7620  10.0000                                                             
     4  0  0.50      -180.5540   2.0000                                                             
     4  1  1.50      -127.5306   6.0000                                                             
     4  2  2.50       -50.2720  10.0000                                                             
     5  0  0.50       -17.4058   2.0000                                                             
     5  1  0.50        -7.0851   5.0000                                                             
     5  2  1.50        -7.0750   0.0000                                                             
     4  3  2.50        -7.0750   0.0000                                                             
   Description                                                                                      
     l       E           TYP  RCUT    TYP  RCUT                                                     
     0    -17.4058016     23  2.300                                                                 
     0    -18.7663842     23  2.300                                                                 
     1     -7.0850686     23  2.300                                                                 
     1     -4.2150896     23  2.300                                                                 
     2     -7.0750295     23  2.300                                                                 
     3     -1.3605826     23  2.300                                                                 
  local pseudopotential read in
  partial core-charges read in
  partial kinetic energy density read in
  atomic valenz-charges read in
  non local Contribution for L=           0  read in
    real space projection operators read in
  non local Contribution for L=           0  read in
    real space projection operators read in
  non local Contribution for L=           1  read in
    real space projection operators read in
  non local Contribution for L=           1  read in
    real space projection operators read in
  non local Contribution for L=           2  read in
    real space projection operators read in
    PAW grid and wavefunctions read in
 
   number of l-projection  operators is LMAX  =           5
   number of lm-projection operators is LMMAX =          13
 
 -----------------------------------------------------------------------------
|                                                                             |
|               ----> ADVICE to this user running VASP <----                  |
|                                                                             |
|     You have a (more or less) 'large supercell' and for larger cells it     |
|     might be more efficient to use real-space projection operators.         |
|     Therefore, try LREAL= Auto in the INCAR file.                           |
|     Mind: For very accurate calculation, you might also keep the            |
|     reciprocal projection scheme (i.e. LREAL=.FALSE.).                      |
|                                                                             |
 -----------------------------------------------------------------------------

  PAW_PBE Ag 02Apr2005                  :
 energy of atom  1       EATOM=-1037.2675
 kinetic energy error for atom=    0.0686 (will be added to EATOM!!)
  PAW_PBE Bi 08Apr2002                  :
 energy of atom  2       EATOM= -150.8133
 kinetic energy error for atom=    0.0004 (will be added to EATOM!!)
  PAW_PBE I 08Apr2002                   :
 energy of atom  3       EATOM= -315.8678
 kinetic energy error for atom=    0.0044 (will be added to EATOM!!)
 
 
 POSCAR: Generation Seed Number
  positions in direct lattice
  velocities in cartesian coordinates
 exchange correlation table for  LEXCH =        8
   RHO(1)=    0.500       N(1)  =     2000
   RHO(2)=  100.500       N(2)  =     4000
 


--------------------------------------------------------------------------------------------------------


 ion  position               nearest neighbor table
   1  0.995  0.989  0.023-  27 2.94  33 2.99  21 3.07  17 3.13  25 3.17  34 3.56
   2  0.511  0.505  0.977-  23 2.94  40 2.99  31 3.07  29 3.12  19 3.18  39 3.55
   3  0.753  0.747  0.004-  27 3.02  23 3.02  21 3.07  31 3.08  47 3.22  48 3.34
   4  0.997  0.502  0.504-  24 3.02  28 3.02  26 3.07  20 3.08  36 3.22  35 3.32
   5  0.224  0.975  0.250-  18 2.96  17 2.96  33 2.96  43 2.97
   6  0.525  0.276  0.750-  30 2.96  29 2.96  40 2.96  46 2.97
   7  0.755  0.260  0.523-  24 2.94  46 2.99  26 3.07  30 3.15  22 3.15  45 3.56
   8  0.240  0.745  0.477-  28 2.94  43 2.99  20 3.07  18 3.14  32 3.15  44 3.56
   9  0.252  0.248  1.000-  29 3.07  17 3.07  42 3.14  41 3.14  25 3.18  19 3.18
  10  0.999  0.249  0.253-  26 3.03  33 3.06  45 3.13  41 3.14  25 3.19  35 3.20
  11  1.000  0.750  0.750-  48 3.11  27 3.11  28 3.11  36 3.12  34 3.14  44 3.14
  12  0.497  0.003  0.500-  30 3.07  18 3.07  37 3.14  38 3.14  22 3.19  32 3.19
  13  0.751  0.001  0.753-  21 3.03  46 3.06  34 3.13  38 3.14  22 3.20  48 3.20
  14  0.750  0.500  0.250-  35 3.11  24 3.11  23 3.11  47 3.12  45 3.14  39 3.14
  15  0.498  0.749  0.246-  31 3.03  43 3.05  39 3.12  37 3.14  32 3.19  47 3.21
  16  0.252  0.501  0.746-  20 3.03  40 3.05  44 3.12  42 3.14  19 3.19  36 3.21
  17  0.240  0.008  0.020-   5 2.96   9 3.07   1 3.13
  18  0.257  0.991  0.480-   5 2.96  12 3.07   8 3.14
  19  0.262  0.498  0.998-   2 3.18   9 3.18  16 3.19
  20  0.239  0.505  0.508-  16 3.03   8 3.07   4 3.08
  21  0.756  0.989  0.992-  13 3.03   1 3.07   3 3.07
  22  0.748  0.013  0.502-   7 3.15  12 3.19  13 3.20
  23  0.741  0.510  0.006-   2 2.94   3 3.02  14 3.11
  24  0.760  0.489  0.494-   7 2.94   4 3.02  14 3.11
  25  0.002  0.238  0.002-   1 3.17   9 3.18  10 3.19
  26  0.995  0.261  0.492-  10 3.03   4 3.07   7 3.07
  27  0.990  0.760  0.994-   1 2.94   3 3.02  11 3.11
  28  0.011  0.740  0.505-   8 2.94   4 3.02  11 3.11
  29  0.493  0.260  0.980-   6 2.96   9 3.07   2 3.12
  30  0.508  0.243  0.520-   6 2.96  12 3.07   7 3.15
  31  0.511  0.744  0.008-  15 3.03   2 3.07   3 3.08
  32  0.487  0.752  0.497-   8 3.15  12 3.19  15 3.19
  33  0.993  0.008  0.257-   5 2.96   1 2.99  10 3.06
  34  0.997  0.997  0.743-  13 3.13  11 3.14   1 3.56
  35  0.995  0.500  0.243-  14 3.11  10 3.20   4 3.32
  36  0.999  0.505  0.757-  11 3.12  16 3.21   4 3.22
  37  0.509  0.996  0.253-  12 3.14  15 3.14
  38  0.504  0.991  0.746-  12 3.14  13 3.14
  39  0.503  0.503  0.256-  15 3.12  14 3.14   2 3.55
  40  0.492  0.506  0.742-   6 2.96   2 2.99  16 3.05
  41  0.246  0.259  0.247-   9 3.14  10 3.14
  42  0.241  0.254  0.753-   9 3.14  16 3.14
  43  0.258  0.744  0.242-   5 2.97   8 2.99  15 3.05
  44  0.247  0.747  0.757-  16 3.12  11 3.14   8 3.56
  45  0.753  0.253  0.243-  10 3.13  14 3.14   7 3.56
  46  0.755  0.242  0.757-   6 2.97   7 2.99  13 3.06
  47  0.750  0.745  0.257-  14 3.12  15 3.21   3 3.22
  48  0.755  0.750  0.742-  11 3.11  13 3.20   3 3.34
 
 -----------------------------------------------------------------------------
|                                                                             |
|           W    W    AA    RRRRR   N    N  II  N    N   GGGG   !!!           |
|           W    W   A  A   R    R  NN   N  II  NN   N  G    G  !!!           |
|           W    W  A    A  R    R  N N  N  II  N N  N  G       !!!           |
|           W WW W  AAAAAA  RRRRR   N  N N  II  N  N N  G  GGG   !            |
|           WW  WW  A    A  R   R   N   NN  II  N   NN  G    G                |
|           W    W  A    A  R    R  N    N  II  N    N   GGGG   !!!           |
|                                                                             |
|     The determination of the symmetry of your systems shows a strong        |
|     dependence on the tolerance parameter SYMPREC. This is often the        |
|     result of "noise" in the structural parameters (lattice vectors         |
|     and/or ionic positions). Set NWRITE=3 for more details.                 |
|                                                                             |
 -----------------------------------------------------------------------------

  LATTYP: Found a triclinic cell.
 ALAT       =    12.7091379700
 B/A-ratio  =     1.4141391664
 C/A-ratio  =     0.9998775229
 COS(alpha) =     0.0000269182
 COS(beta)  =     0.0001938552
 COS(gamma) =     0.7070316074
  
  Lattice vectors:
  
 A1 = ( -12.7091378647,  -0.0010935281,  -0.0012165659)
 A2 = ( -12.7082119103,  12.7087268707,  -0.0002229004)
 A3 = (  -0.0012469294,  -0.0009860153, -12.7075812918)


Analysis of symmetry for initial positions (statically):
=====================================================================
 Subroutine PRICEL returns:
 Original cell was already a primitive cell.
 

 Routine SETGRP: Setting up the symmetry group for a 
 triclinic supercell.


 Subroutine GETGRP returns: Found  1 space group operations
 (whereof  1 operations were pure point group operations)
 out of a pool of  2 trial point group operations.


The static configuration has the point symmetry C_1 .


Analysis of symmetry for dynamics (positions and initial velocities):
=====================================================================
 Subroutine PRICEL returns:
 Original cell was already a primitive cell.
 

 Routine SETGRP: Setting up the symmetry group for a 
 triclinic supercell.


 Subroutine GETGRP returns: Found  1 space group operations
 (whereof  1 operations were pure point group operations)
 out of a pool of  2 trial point group operations.


The dynamic configuration has the point symmetry C_1 .


 Subroutine INISYM returns: Found  1 space group operations
 (whereof  1 operations are pure point group operations),
 and found     1 'primitive' translations


----------------------------------------------------------------------------------------

                                     Primitive cell                                     

  volume of cell :    2052.6665

  direct lattice vectors                    reciprocal lattice vectors
    12.709137865  0.001093528  0.001216566     0.078683545 -0.000005732 -0.000007720
     0.000925954 12.709820399  0.000993666    -0.000006769  0.078679319 -0.000006104
     0.001246929  0.000986015 12.707581292    -0.000007532 -0.000006152  0.078693183

  length of vectors
    12.709137970 12.709820471 12.707581391     0.078683545  0.078679319  0.078693183

  position of ions in fractional coordinates (direct lattice)
     0.995249193  0.989222646  0.023177882
     0.511091122  0.504545012  0.976793344
     0.753297277  0.747427507  0.004447902
     0.996930922  0.502014163  0.504133541
     0.224058968  0.975362375  0.249962230
     0.524528853  0.275665060  0.749747892
     0.755229982  0.259776484  0.523108504
     0.240014986  0.744541758  0.476626367
     0.251820183  0.248264261  0.999907118
     0.998749723  0.248948503  0.253416136
     0.999603652  0.750117003  0.749799351
     0.497280510  0.002529411  0.499837263
     0.751127159  0.001238767  0.753447980
     0.750377224  0.499847412  0.250005465
     0.498108071  0.748624821  0.246259831
     0.251500549  0.501411936  0.746415912
     0.240467233  0.007572670  0.019789000
     0.256905697  0.991364331  0.479961915
     0.261932266  0.498294750  0.997560327
     0.239356338  0.505012957  0.508099127
     0.755967190  0.988902295  0.991849929
     0.747664557  0.013107897  0.502282696
     0.740540048  0.509897819  0.005535656
     0.759833992  0.489434544  0.494404375
     0.001790018  0.237925483  0.002270360
     0.994815821  0.260807255  0.491850880
     0.990186753  0.759539630  0.994263066
     0.010512997  0.739574674  0.505399078
     0.492507312  0.259529539  0.980074260
     0.508219053  0.242869924  0.519818939
     0.511020993  0.744139160  0.007976420
     0.487020496  0.752129831  0.497409238
     0.993497671  0.008441885  0.257460227
     0.996977480  0.996815924  0.742999965
     0.994841716  0.500316729  0.242569178
     0.999454120  0.504958511  0.757112801
     0.509066014  0.995665724  0.253300124
     0.504288190  0.990500951  0.746498038
     0.503091028  0.503033410  0.256425325
     0.491675861  0.506396035  0.742468841
     0.245591337  0.259188006  0.246583702
     0.240805467  0.254304311  0.753447402
     0.257925571  0.744471626  0.242145809
     0.246866496  0.746896022  0.756554847
     0.752932643  0.253233290  0.243152502
     0.755285489  0.241787192  0.757483592
     0.750089870  0.745083047  0.257450076
     0.755155980  0.749996173  0.741941656

  ion indices of the primitive-cell ions
   primitive index   ion index
                 1           1
                 2           2
                 3           3
                 4           4
                 5           5
                 6           6
                 7           7
                 8           8
                 9           9
                10          10
                11          11
                12          12
                13          13
                14          14
                15          15
                16          16
                17          17
                18          18
                19          19
                20          20
                21          21
                22          22
                23          23
                24          24
                25          25
                26          26
                27          27
                28          28
                29          29
                30          30
                31          31
                32          32
                33          33
                34          34
                35          35
                36          36
                37          37
                38          38
                39          39
                40          40
                41          41
                42          42
                43          43
                44          44
                45          45
                46          46
                47          47
                48          48

----------------------------------------------------------------------------------------

 
 
 KPOINTS: agbii                                   

Automatic generation of k-mesh.
Space group operators:
 irot       det(A)        alpha          n_x          n_y          n_z        tau_x        tau_y        tau_z
    1     1.000000     0.000001     1.000000     0.000000     0.000000     0.000000     0.000000     0.000000
 TETIRR: Found    192 inequivalent tetrahedra from      384
 
 Subroutine IBZKPT returns following result:
 ===========================================
 
 Found     36 irreducible k-points:
 
 Following reciprocal coordinates:
            Coordinates               Weight
  0.000000  0.000000  0.000000      1.000000
  0.250000  0.000000 -0.000000      2.000000
  0.500000  0.000000  0.000000      1.000000
 -0.000000  0.250000  0.000000      2.000000
  0.250000  0.250000 -0.000000      2.000000
  0.500000  0.250000  0.000000      2.000000
 -0.250000  0.250000  0.000000      2.000000
 -0.000000  0.500000  0.000000      1.000000
  0.250000  0.500000 -0.000000      2.000000
  0.500000  0.500000  0.000000      1.000000
 -0.000000  0.000000  0.250000      2.000000
  0.250000  0.000000  0.250000      2.000000
  0.500000  0.000000  0.250000      2.000000
 -0.250000  0.000000  0.250000      2.000000
 -0.000000  0.250000  0.250000      2.000000
  0.250000  0.250000  0.250000      2.000000
  0.500000  0.250000  0.250000      2.000000
 -0.250000  0.250000  0.250000      2.000000
 -0.000000  0.500000  0.250000      2.000000
  0.250000  0.500000  0.250000      2.000000
  0.500000  0.500000  0.250000      2.000000
 -0.250000  0.500000  0.250000      2.000000
  0.000000 -0.250000  0.250000      2.000000
  0.250000 -0.250000  0.250000      2.000000
  0.500000 -0.250000  0.250000      2.000000
 -0.250000 -0.250000  0.250000      2.000000
 -0.000000  0.000000  0.500000      1.000000
  0.250000  0.000000  0.500000      2.000000
  0.500000  0.000000  0.500000      1.000000
 -0.000000  0.250000  0.500000      2.000000
  0.250000  0.250000  0.500000      2.000000
  0.500000  0.250000  0.500000      2.000000
 -0.250000  0.250000  0.500000      2.000000
 -0.000000  0.500000  0.500000      1.000000
  0.250000  0.500000  0.500000      2.000000
  0.500000  0.500000  0.500000      1.000000
 
 Following cartesian coordinates:
            Coordinates               Weight
  0.000000  0.000000  0.000000      1.000000
  0.019671 -0.000001 -0.000002      2.000000
  0.039342 -0.000003 -0.000004      1.000000
 -0.000002  0.019670 -0.000002      2.000000
  0.019669  0.019668 -0.000003      2.000000
  0.039340  0.019667 -0.000005      2.000000
 -0.019673  0.019671  0.000000      2.000000
 -0.000003  0.039340 -0.000003      1.000000
  0.019668  0.039338 -0.000005      2.000000
  0.039338  0.039337 -0.000007      1.000000
 -0.000002 -0.000002  0.019673      2.000000
  0.019669 -0.000003  0.019671      2.000000
  0.039340 -0.000004  0.019669      2.000000
 -0.019673 -0.000000  0.019675      2.000000
 -0.000004  0.019668  0.019672      2.000000
  0.019667  0.019667  0.019670      2.000000
  0.039338  0.019665  0.019668      2.000000
 -0.019674  0.019670  0.019674      2.000000
 -0.000005  0.039338  0.019670      2.000000
  0.019666  0.039337  0.019668      2.000000
  0.039337  0.039335  0.019666      2.000000
 -0.019676  0.039340  0.019672      2.000000
 -0.000000 -0.019671  0.019675      2.000000
  0.019671 -0.019673  0.019673      2.000000
  0.039342 -0.019674  0.019671      2.000000
 -0.019671 -0.019670  0.019677      2.000000
 -0.000004 -0.000003  0.039347      1.000000
  0.019667 -0.000005  0.039345      2.000000
  0.039338 -0.000006  0.039343      1.000000
 -0.000005  0.019667  0.039345      2.000000
  0.019665  0.019665  0.039343      2.000000
  0.039336  0.019664  0.039341      2.000000
 -0.019676  0.019668  0.039347      2.000000
 -0.000007  0.039337  0.039344      1.000000
  0.019664  0.039335  0.039342      2.000000
  0.039335  0.039334  0.039340      1.000000
 


--------------------------------------------------------------------------------------------------------




 Dimension of arrays:
   k-points           NKPTS =     36   k-points in BZ     NKDIM =     36   number of bands    NBANDS=    211
   number of dos      NEDOS =   3000   number of ions     NIONS =     48
   non local maximal  LDIM  =      6   non local SUM 2l+1 LMDIM =     18
   total plane-waves  NPLWV = 125000
   max r-space proj   IRMAX =      1   max aug-charges    IRDMAX=   6000
   dimension x,y,z NGX =    50 NGY =   50 NGZ =   50
   dimension x,y,z NGXF=   100 NGYF=  100 NGZF=  100
   support grid    NGXF=   100 NGYF=  100 NGZF=  100
   ions per type =               8   8  32
   NGX,Y,Z   is equivalent  to a cutoff of   6.54,  6.54,  6.54 a.u.
   NGXF,Y,Z  is equivalent  to a cutoff of  13.08, 13.08, 13.08 a.u.

 SYSTEM =  unknown system                          
 POSCAR =  Generation Seed Number                  

 Startparameter for this run:
   NWRITE =      2    write-flag & timer
   PREC   = normal    normal or accurate (medium, high low for compatibility)
   ISTART =      1    job   : 0-new  1-cont  2-samecut
   ICHARG =      1    charge: 1-file 2-atom 10-const
   ISPIN  =      1    spin polarized calculation?
   LNONCOLLINEAR =      F non collinear calculations
   LSORBIT =      F    spin-orbit coupling
   INIWAV =      1    electr: 0-lowe 1-rand  2-diag
   LASPH  =      F    aspherical Exc in radial PAW
   METAGGA=      F    non-selfconsistent MetaGGA calc.

 Electronic Relaxation 1
   ENCUT  =  250.0 eV  18.37 Ry    4.29 a.u.  16.38 16.39 16.38*2*pi/ulx,y,z
   ENINI  =  250.0     initial cutoff
   ENAUG  =  412.5 eV  augmentation charge cutoff
   NELM   =     60;   NELMIN=  2; NELMDL=  0     # of ELM steps 
   EDIFF  = 0.1E-05   stopping-criterion for ELM
   LREAL  =      F    real-space projection
   NLSPLINE    = F    spline interpolate recip. space projectors
   LCOMPAT=      F    compatible to vasp.4.4
   GGA_COMPAT  = T    GGA compatible to vasp.4.4-vasp.4.6
   LMAXPAW     = -100 max onsite density
   LMAXMIX     =    4 max onsite mixed and CHGCAR
   VOSKOWN=      0    Vosko Wilk Nusair interpolation
   ROPT   =    0.00000   0.00000   0.00000
 Ionic relaxation
   EDIFFG = -.1E-01   stopping-criterion for IOM
   NSW    =      0    number of steps for IOM
   NBLOCK =      1;   KBLOCK =      1    inner block; outer block 
   IBRION =     -1    ionic relax: 0-MD 1-quasi-New 2-CG
   NFREE  =      0    steps in history (QN), initial steepest desc. (CG)
   ISIF   =     -1    stress and relaxation
   IWAVPR =     10    prediction:  0-non 1-charg 2-wave 3-comb
   ISYM   =      2    0-nonsym 1-usesym 2-fastsym
   LCORR  =      T    Harris-Foulkes like correction to forces

   POTIM  = 0.5000    time-step for ionic-motion
   TEIN   =    0.0    initial temperature
   TEBEG  =    0.0;   TEEND  =   0.0 temperature during run
   SMASS  =  -3.00    Nose mass-parameter (am)
   estimated Nose-frequenzy (Omega)   =  0.10E-29 period in steps = 0.13E+47 mass=  -0.369E-26a.u.
   SCALEE = 1.0000    scale energy and forces
   NPACO  =    256;   APACO  = 16.0  distance and # of slots for P.C.
   PSTRESS=    0.0 pullay stress

  Mass of Ions in am
   POMASS = 107.87208.98126.90
  Ionic Valenz
   ZVAL   =  11.00  5.00  7.00
  Atomic Wigner-Seitz radii
   RWIGS  =  -1.00 -1.00 -1.00
  virtual crystal weights 
   VCA    =   1.00  1.00  1.00
   NELECT =     352.0000    total number of electrons
   NUPDOWN=      -1.0000    fix difference up-down

 DOS related values:
   EMIN   =  10.00;   EMAX   =-10.00  energy-range for DOS
   EFERMI =   0.00
   ISMEAR =    -5;   SIGMA  =   0.20  broadening in eV -4-tet -1-fermi 0-gaus

 Electronic relaxation 2 (details)
   IALGO  =     38    algorithm
   LDIAG  =      T    sub-space diagonalisation (order eigenvalues)
   LSUBROT=      F    optimize rotation matrix (better conditioning)
   TURBO    =      0    0=normal 1=particle mesh
   IRESTART =      0    0=no restart 2=restart with 2 vectors
   NREBOOT  =      0    no. of reboots
   NMIN     =      0    reboot dimension
   EREF     =   0.00    reference energy to select bands
   IMIX   =      4    mixing-type and parameters
     AMIX     =   0.40;   BMIX     =  1.00
     AMIX_MAG =   1.60;   BMIX_MAG =  1.00
     AMIN     =   0.10
     WC   =   100.;   INIMIX=   1;  MIXPRE=   1;  MAXMIX= -45

 Intra band minimization:
   WEIMIN = 0.0000     energy-eigenvalue tresh-hold
   EBREAK =  0.12E-08  absolut break condition
   DEPER  =   0.30     relativ break condition  

   TIME   =   0.40     timestep for ELM

  volume/ion in A,a.u.               =      42.76       288.58
  Fermi-wavevector in a.u.,A,eV,Ry     =   0.909528  1.718759 11.255309  0.827242
  Thomas-Fermi vector in A             =   2.033584
 
 Write flags
   LWAVE        =      T    write WAVECAR
   LDOWNSAMPLE  =      F    k-point downsampling of WAVECAR
   LCHARG       =      T    write CHGCAR
   LVTOT        =      F    write LOCPOT, total local potential
   LVHAR        =      F    write LOCPOT, Hartree potential only
   LELF         =      F    write electronic localiz. function (ELF)
   LORBIT       =     10    0 simple, 1 ext, 2 COOP (PROOUT), +10 PAW based schemes


 Dipole corrections
   LMONO  =      F    monopole corrections only (constant potential shift)
   LDIPOL =      F    correct potential (dipole corrections)
   IDIPOL =      0    1-x, 2-y, 3-z, 4-all directions 
   EPSILON=  1.0000000 bulk dielectric constant

 Exchange correlation treatment:
   GGA     =    --    GGA type
   LEXCH   =     8    internal setting for exchange type
   VOSKOWN=      0    Vosko Wilk Nusair interpolation
   LHFCALC =     F    Hartree Fock is set to
   LHFONE  =     F    Hartree Fock one center treatment
   AEXX    =    0.0000 exact exchange contribution

 Linear response parameters
   LEPSILON=     F    determine dielectric tensor
   LRPA    =     F    only Hartree local field effects (RPA)
   LNABLA  =     F    use nabla operator in PAW spheres
   LVEL    =     F    velocity operator in full k-point grid
   LINTERFAST=   F  fast interpolation
   KINTER  =     0    interpolate to denser k-point grid
   CSHIFT  =0.1000    complex shift for real part using Kramers Kronig
   OMEGAMAX=  -1.0    maximum frequency
   DEG_THRESHOLD= 0.2000000E-02 threshold for treating states as degnerate
   RTIME   =   -0.100 relaxation time in fs
  (WPLASMAI=    0.000 imaginary part of plasma frequency in eV, 0.658/RTIME)
   DFIELD  = 0.0000000 0.0000000 0.0000000 field for delta impulse in time
 
 Orbital magnetization related:
   ORBITALMAG=     F  switch on orbital magnetization
   LCHIMAG   =     F  perturbation theory with respect to B field
   DQ        =  0.001000  dq finite difference perturbation B field
   LLRAUG    =     F  two centre corrections for induced B field



--------------------------------------------------------------------------------------------------------


 Static calculation
 charge density and potential will be updated during run
 non-spin polarized calculation
 Variant of blocked Davidson
 Davidson routine will perform the subspace rotation
 perform sub-space diagonalisation
    after iterative eigenvector-optimisation
 modified Broyden-mixing scheme, WC =      100.0
 initial mixing is a Kerker type mixing with AMIX =  0.4000 and BMIX =      1.0000
 Hartree-type preconditioning will be used
 using additional bands           35
 reciprocal scheme for non local part
 use partial core corrections
 calculate Harris-corrections to forces 
   (improved forces if not selfconsistent)
 use gradient corrections 
 use of overlap-Matrix (Vanderbilt PP)
 Fermi weights with tetrahedron method with Bloechl corrections


--------------------------------------------------------------------------------------------------------


  energy-cutoff  :      250.00
  volume of cell :     2052.67
      direct lattice vectors                 reciprocal lattice vectors
    12.709137865  0.001093528  0.001216566     0.078683545 -0.000005732 -0.000007720
     0.000925954 12.709820399  0.000993666    -0.000006769  0.078679319 -0.000006104
     0.001246929  0.000986015 12.707581292    -0.000007532 -0.000006152  0.078693183

  length of vectors
    12.709137970 12.709820471 12.707581391     0.078683545  0.078679319  0.078693183


 
 old parameters found on file WAVECAR:
  energy-cutoff  :      250.00
  volume of cell :     2052.67
      direct lattice vectors                 reciprocal lattice vectors
    12.709137865  0.001093528  0.001216566     0.078683545 -0.000005732 -0.000007720
     0.000925954 12.709820399  0.000993666    -0.000006769  0.078679319 -0.000006104
     0.001246929  0.000986015 12.707581292    -0.000007532 -0.000006152  0.078693183

  length of vectors

 
 k-points in units of 2pi/SCALE and weight: agbii                                   
   0.00000000  0.00000000  0.00000000       0.016
   0.01967089 -0.00000143 -0.00000193       0.031
   0.03934177 -0.00000287 -0.00000386       0.016
  -0.00000169  0.01966983 -0.00000153       0.031
   0.01966919  0.01966840 -0.00000346       0.031
   0.03934008  0.01966696 -0.00000539       0.031
  -0.01967258  0.01967126  0.00000040       0.031
  -0.00000338  0.03933966 -0.00000305       0.016
   0.01966750  0.03933823 -0.00000498       0.031
   0.03933839  0.03933679 -0.00000691       0.016
  -0.00000188 -0.00000154  0.01967330       0.031
   0.01966900 -0.00000297  0.01967137       0.031
   0.03933989 -0.00000440  0.01966944       0.031
  -0.01967277 -0.00000010  0.01967523       0.031
  -0.00000358  0.01966829  0.01967177       0.031
   0.01966731  0.01966686  0.01966984       0.031
   0.03933820  0.01966543  0.01966791       0.031
  -0.01967446  0.01966972  0.01967370       0.031
  -0.00000527  0.03933812  0.01967024       0.031
   0.01966562  0.03933669  0.01966831       0.031
   0.03933650  0.03933526  0.01966638       0.031
  -0.01967615  0.03933955  0.01967217       0.031
  -0.00000019 -0.01967137  0.01967482       0.031
   0.01967070 -0.01967280  0.01967289       0.031
   0.03934158 -0.01967423  0.01967096       0.031
  -0.01967108 -0.01966993  0.01967675       0.031
  -0.00000377 -0.00000308  0.03934659       0.016
   0.01966712 -0.00000451  0.03934466       0.031
   0.03933801 -0.00000594  0.03934273       0.016
  -0.00000546  0.01966675  0.03934507       0.031
   0.01966543  0.01966532  0.03934314       0.031
   0.03933631  0.01966389  0.03934121       0.031
  -0.01967634  0.01966819  0.03934700       0.031
  -0.00000715  0.03933658  0.03934354       0.016
   0.01966374  0.03933515  0.03934161       0.031
   0.03933462  0.03933372  0.03933968       0.016
 
 k-points in reciprocal lattice and weights: agbii                                   
   0.00000000  0.00000000  0.00000000       0.016
   0.25000000  0.00000000 -0.00000000       0.031
   0.50000000  0.00000000  0.00000000       0.016
  -0.00000000  0.25000000  0.00000000       0.031
   0.25000000  0.25000000 -0.00000000       0.031
   0.50000000  0.25000000  0.00000000       0.031
  -0.25000000  0.25000000  0.00000000       0.031
  -0.00000000  0.50000000  0.00000000       0.016
   0.25000000  0.50000000 -0.00000000       0.031
   0.50000000  0.50000000  0.00000000       0.016
  -0.00000000  0.00000000  0.25000000       0.031
   0.25000000  0.00000000  0.25000000       0.031
   0.50000000  0.00000000  0.25000000       0.031
  -0.25000000  0.00000000  0.25000000       0.031
  -0.00000000  0.25000000  0.25000000       0.031
   0.25000000  0.25000000  0.25000000       0.031
   0.50000000  0.25000000  0.25000000       0.031
  -0.25000000  0.25000000  0.25000000       0.031
  -0.00000000  0.50000000  0.25000000       0.031
   0.25000000  0.50000000  0.25000000       0.031
   0.50000000  0.50000000  0.25000000       0.031
  -0.25000000  0.50000000  0.25000000       0.031
   0.00000000 -0.25000000  0.25000000       0.031
   0.25000000 -0.25000000  0.25000000       0.031
   0.50000000 -0.25000000  0.25000000       0.031
  -0.25000000 -0.25000000  0.25000000       0.031
  -0.00000000  0.00000000  0.50000000       0.016
   0.25000000  0.00000000  0.50000000       0.031
   0.50000000  0.00000000  0.50000000       0.016
  -0.00000000  0.25000000  0.50000000       0.031
   0.25000000  0.25000000  0.50000000       0.031
   0.50000000  0.25000000  0.50000000       0.031
  -0.25000000  0.25000000  0.50000000       0.031
  -0.00000000  0.50000000  0.50000000       0.016
   0.25000000  0.50000000  0.50000000       0.031
   0.50000000  0.50000000  0.50000000       0.016
 
 position of ions in fractional coordinates (direct lattice) 
   0.99524919  0.98922265  0.02317788
   0.51109112  0.50454501  0.97679334
   0.75329728  0.74742751  0.00444790
   0.99693092  0.50201416  0.50413354
   0.22405897  0.97536238  0.24996223
   0.52452885  0.27566506  0.74974789
   0.75522998  0.25977648  0.52310850
   0.24001499  0.74454176  0.47662637
   0.25182018  0.24826426  0.99990712
   0.99874972  0.24894850  0.25341614
   0.99960365  0.75011700  0.74979935
   0.49728051  0.00252941  0.49983726
   0.75112716  0.00123877  0.75344798
   0.75037722  0.49984741  0.25000547
   0.49810807  0.74862482  0.24625983
   0.25150055  0.50141194  0.74641591
   0.24046723  0.00757267  0.01978900
   0.25690570  0.99136433  0.47996191
   0.26193227  0.49829475  0.99756033
   0.23935634  0.50501296  0.50809913
   0.75596719  0.98890229  0.99184993
   0.74766456  0.01310790  0.50228270
   0.74054005  0.50989782  0.00553566
   0.75983399  0.48943454  0.49440438
   0.00179002  0.23792548  0.00227036
   0.99481582  0.26080726  0.49185088
   0.99018675  0.75953963  0.99426307
   0.01051300  0.73957467  0.50539908
   0.49250731  0.25952954  0.98007426
   0.50821905  0.24286992  0.51981894
   0.51102099  0.74413916  0.00797642
   0.48702050  0.75212983  0.49740924
   0.99349767  0.00844189  0.25746023
   0.99697748  0.99681592  0.74299996
   0.99484172  0.50031673  0.24256918
   0.99945412  0.50495851  0.75711280
   0.50906601  0.99566572  0.25330012
   0.50428819  0.99050095  0.74649804
   0.50309103  0.50303341  0.25642533
   0.49167586  0.50639603  0.74246884
   0.24559134  0.25918801  0.24658370
   0.24080547  0.25430431  0.75344740
   0.25792557  0.74447163  0.24214581
   0.24686650  0.74689602  0.75655485
   0.75293264  0.25323329  0.24315250
   0.75528549  0.24178719  0.75748359
   0.75008987  0.74508305  0.25745008
   0.75515598  0.74999617  0.74194166
 
 position of ions in cartesian coordinates  (Angst):
  12.64970409 12.57395335  0.29672856
   6.49721271  6.41419851 12.41380394
   9.57445658  9.50049751  0.05818121
  12.67122599  6.38209711  6.40802962
   2.84881115 12.39717209  3.17765712
   6.66749964  3.50496625  9.52839432
   9.59921478  3.30305412  6.64862075
   3.05166728  9.46372445  6.05780013
   3.20189411  3.15665546 12.70695404
  12.69379442  3.16543279  3.22176856
  12.70573014  9.53568480  9.53009765
   6.32063217  0.03318500  6.35233014
   9.54711926  0.01730879  9.57541648
   9.53742217  6.35403790  3.17837434
   6.33152441  9.51567453  3.13071668
   3.19775016  6.37386665  9.48594509
   3.05616290  0.09652975  0.25177040
   3.26656636 12.60081678  6.10045268
   3.33063856  6.33450682 12.67739275
   3.04311388  6.41938672  6.45750396
   9.60984369 12.57057521 12.60591593
   9.50281037  0.16791187  6.38372080
   9.41210461  6.48152496  0.07175238
   9.65790464  6.22194355  6.28409451
   0.02297272  3.02399435  0.02908938
  12.64410622  3.31638621  6.25170445
  12.58636304  9.65567544 12.63663810
   0.13492613  9.40037111  6.42314755
   6.26080572  3.30007877 12.45523039
   6.45989907  3.08790141  6.60650104
   6.49533523  9.45844175  0.10272213
   6.19092730  9.56045810  6.32220818
  12.62682772  0.10863512  3.27291381
  12.67257371 12.67117419  9.44393584
  12.64434626  6.36026283  3.08417499
  12.70361183  6.41977144  9.62279012
   6.47102794 12.65553897  3.22044059
   6.41091613 12.59037670  9.48778223
   6.39463877  6.39426728  3.25965755
   6.25017101  6.43747240  9.43608449
   3.12180162  3.29474470  3.13403876
   3.06160484  3.23316836  9.57503976
   3.27900293  9.46262147  3.07814109
   3.13909530  9.49393022  9.61502471
   9.56966244  3.21961275  3.09104781
   9.60019581  3.07464460  9.62694344
   9.53400650  9.47094581  3.27322066
   9.59900107  9.53387401  9.42994785
 


--------------------------------------------------------------------------------------------------------


 k-point   1 :   0.0000 0.0000 0.0000  plane waves:   18349
 k-point   2 :   0.2500 0.0000-0.0000  plane waves:   18465
 k-point   3 :   0.5000 0.0000 0.0000  plane waves:   18464
 k-point   4 :  -0.0000 0.2500 0.0000  plane waves:   18465
 k-point   5 :   0.2500 0.2500-0.0000  plane waves:   18429
 k-point   6 :   0.5000 0.2500 0.0000  plane waves:   18418
 k-point   7 :  -0.2500 0.2500 0.0000  plane waves:   18429
 k-point   8 :  -0.0000 0.5000 0.0000  plane waves:   18464
 k-point   9 :   0.2500 0.5000-0.0000  plane waves:   18418
 k-point  10 :   0.5000 0.5000 0.0000  plane waves:   18420
 k-point  11 :  -0.0000 0.0000 0.2500  plane waves:   18465
 k-point  12 :   0.2500 0.0000 0.2500  plane waves:   18429
 k-point  13 :   0.5000 0.0000 0.2500  plane waves:   18418
 k-point  14 :  -0.2500 0.0000 0.2500  plane waves:   18429
 k-point  15 :  -0.0000 0.2500 0.2500  plane waves:   18429
 k-point  16 :   0.2500 0.2500 0.2500  plane waves:   18430
 k-point  17 :   0.5000 0.2500 0.2500  plane waves:   18437
 k-point  18 :  -0.2500 0.2500 0.2500  plane waves:   18430
 k-point  19 :  -0.0000 0.5000 0.2500  plane waves:   18418
 k-point  20 :   0.2500 0.5000 0.2500  plane waves:   18437
 k-point  21 :   0.5000 0.5000 0.2500  plane waves:   18432
 k-point  22 :  -0.2500 0.5000 0.2500  plane waves:   18437
 k-point  23 :   0.0000-0.2500 0.2500  plane waves:   18429
 k-point  24 :   0.2500-0.2500 0.2500  plane waves:   18430
 k-point  25 :   0.5000-0.2500 0.2500  plane waves:   18437
 k-point  26 :  -0.2500-0.2500 0.2500  plane waves:   18430
 k-point  27 :  -0.0000 0.0000 0.5000  plane waves:   18464
 k-point  28 :   0.2500 0.0000 0.5000  plane waves:   18418
 k-point  29 :   0.5000 0.0000 0.5000  plane waves:   18434
 k-point  30 :  -0.0000 0.2500 0.5000  plane waves:   18418
 k-point  31 :   0.2500 0.2500 0.5000  plane waves:   18435
 k-point  32 :   0.5000 0.2500 0.5000  plane waves:   18432
 k-point  33 :  -0.2500 0.2500 0.5000  plane waves:   18436
 k-point  34 :  -0.0000 0.5000 0.5000  plane waves:   18420
 k-point  35 :   0.2500 0.5000 0.5000  plane waves:   18432
 k-point  36 :   0.5000 0.5000 0.5000  plane waves:   18336

 maximum and minimum number of plane-waves per node :     18465    18336

 maximum number of plane-waves:     18465
 maximum index in each direction: 
   IXMAX=   16   IYMAX=   16   IZMAX=   16
   IXMIN=  -16   IYMIN=  -16   IZMIN=  -16


 serial   3D FFT for wavefunctions
 parallel 3D FFT for charge:
    minimum data exchange during FFTs selected (reduces bandwidth)


 total amount of memory used by VASP MPI-rank0  2761676. kBytes
=======================================================================

   base      :      30000. kBytes
   nonl-proj :     301348. kBytes
   fftplans  :      34720. kBytes
   grid      :      70000. kBytes
   one-center:        746. kBytes
   wavefun   :    2324862. kBytes
 
     INWAV:  cpu time    4.5274: real time    6.1457
 Broyden mixing: mesh for mixing (old mesh)
   NGX = 33   NGY = 33   NGZ = 33
  (NGX  =100   NGY  =100   NGZ  =100)
  gives a total of  35937 points

 initial charge density was supplied:
 number of electron     352.0000445 magnetization 
 keeping initial charge density in first step


--------------------------------------------------------------------------------------------------------


 Maximum index for augmentation-charges         5627 (set IRDMAX)


--------------------------------------------------------------------------------------------------------


 First call to EWALD:  gamma=   0.139
 Maximum number of real-space cells 3x 3x 3
 Maximum number of reciprocal cells 3x 3x 3

    FEWALD:  cpu time    0.0028: real time    0.0028


--------------------------------------- Iteration      1(   1)  ---------------------------------------


    POTLOK:  cpu time    0.5771: real time    0.5939
    SETDIJ:  cpu time    0.0272: real time    0.0272
     EDDAV:  cpu time   57.7867: real time   57.7884
 BZINTS: Fermi energy:    2.093423;  352.000000 electrons
         Band energy:-0.747350E+03;  BLOECHL correction:    0.000000
       DOS:  cpu time    0.0583: real time    0.0583
    CHARGE:  cpu time    1.2465: real time    1.2466
    MIXING:  cpu time    0.0245: real time    0.0245
    --------------------------------------------
      LOOP:  cpu time   59.7203: real time   59.7390

 eigenvalue-minimisations  : 10072
 total energy-change (2. order) :-0.1199668E+03  (-0.2435705E-06)
 number of electron     352.0000445 magnetization 
 augmentation part      -23.1245249 magnetization 

 Broyden mixing:
  rms(total) = 0.66798E-03    rms(broyden)= 0.66796E-03
  rms(prec ) = 0.77394E-03
  weight for this iteration     100.00

 Free energy of the ion-electron system (eV)
  ---------------------------------------------------
  alpha Z        PSCENC =       226.87482302
  Ewald energy   TEWEN  =    -13910.04470458
  -Hartree energ DENC   =     -6051.37417485
  -exchange      EXHF   =         0.00000000
  -V(xc)+E(xc)   XCENC  =     -1392.26428307
  PAW double counting   =     22651.71683760   -20509.24861258
  entropy T*S    EENTRO =         0.00000000
  eigenvalues    EBANDS =      -747.35046363
  atomic energy  EATOM  =     19611.72375700
  Solvation  Ediel_sol  =         0.00000000
  ---------------------------------------------------
  free energy    TOTEN  =      -119.96682108 eV

  energy without entropy =     -119.96682108  energy(sigma->0) =     -119.96682108


--------------------------------------------------------------------------------------------------------




--------------------------------------- Iteration      1(   2)  ---------------------------------------


    POTLOK:  cpu time    0.5672: real time    0.5674
    SETDIJ:  cpu time    0.0478: real time    0.0478
     EDDAV:  cpu time   50.0833: real time   50.0848
 BZINTS: Fermi energy:    2.093455;  352.000000 electrons
         Band energy:-0.747346E+03;  BLOECHL correction:    0.000000
       DOS:  cpu time    0.0554: real time    0.0554
    --------------------------------------------
      LOOP:  cpu time   50.7537: real time   50.7554

 eigenvalue-minimisations  :  8208
 total energy-change (2. order) :-0.6572009E-07  (-0.1117579E-06)
 number of electron     352.0000445 magnetization 
 augmentation part      -23.1245249 magnetization 

 Free energy of the ion-electron system (eV)
  ---------------------------------------------------
  alpha Z        PSCENC =       226.87482302
  Ewald energy   TEWEN  =    -13910.04470458
  -Hartree energ DENC   =     -6051.37805204
  -exchange      EXHF   =         0.00000000
  -V(xc)+E(xc)   XCENC  =     -1392.26378008
  PAW double counting   =     22651.27969954   -20508.81232228
  entropy T*S    EENTRO =         0.00000000
  eigenvalues    EBANDS =      -747.34624174
  atomic energy  EATOM  =     19611.72375700
  Solvation  Ediel_sol  =         0.00000000
  ---------------------------------------------------
  free energy    TOTEN  =      -119.96682115 eV

  energy without entropy =     -119.96682115  energy(sigma->0) =     -119.96682115


--------------------------------------------------------------------------------------------------------




 average (electrostatic) potential at core
  the test charge radii are     1.1249  1.4024  1.1875
  (the norm of the test charge is              1.0000)
       1 -75.0290       2 -75.0281       3 -74.9719       4 -74.9700       5 -75.1552
       6 -75.1547       7 -75.0267       8 -75.0264       9 -65.4414      10 -65.4974
      11 -65.4716      12 -65.4419      13 -65.4965      14 -65.4724      15 -65.4987
      16 -65.4980      17 -93.0576      18 -93.0547      19 -93.1497      20 -93.0397
      21 -93.0494      22 -93.1568      23 -92.9710      24 -92.9760      25 -93.1513
      26 -93.0464      27 -92.9764      28 -92.9705      29 -93.0589      30 -93.0538
      31 -93.0443      32 -93.1561      33 -93.1942      34 -93.3097      35 -93.2746
      36 -93.2968      37 -93.2906      38 -93.2918      39 -93.3019      40 -93.2037
      41 -93.2960      42 -93.2943      43 -93.2001      44 -93.3023      45 -93.3125
      46 -93.1882      47 -93.2966      48 -93.2714
 
 
 
 E-fermi :   2.0935     XC(G=0):  -7.8209     alpha+bet : -7.7978


 k-point     1 :       0.0000    0.0000    0.0000
  band No.  band energies     occupation 
      1     -10.8161      2.00000
      2     -10.6849      2.00000
      3     -10.6397      2.00000
      4     -10.5045      2.00000
      5     -10.4527      2.00000
      6     -10.2265      2.00000
      7     -10.1934      2.00000
      8     -10.0129      2.00000
      9      -9.8618      2.00000
     10      -9.8521      2.00000
     11      -9.8389      2.00000
     12      -9.8158      2.00000
     13      -9.8113      2.00000
     14      -9.7789      2.00000
     15      -9.7769      2.00000
     16      -9.7089      2.00000
     17      -9.6991      2.00000
     18      -9.6800      2.00000
     19      -9.6790      2.00000
     20      -9.6763      2.00000
     21      -9.6519      2.00000
     22      -9.6281      2.00000
     23      -9.6222      2.00000
     24      -9.5955      2.00000
     25      -9.5832      2.00000
     26      -9.5741      2.00000
     27      -9.5574      2.00000
     28      -9.5305      2.00000
     29      -9.5239      2.00000
     30      -9.5187      2.00000
     31      -9.5123      2.00000
     32      -9.4797      2.00000
     33      -8.1880      2.00000
     34      -8.0900      2.00000
     35      -8.0777      2.00000
     36      -7.8491      2.00000
     37      -7.8233      2.00000
     38      -7.6155      2.00000
     39      -7.6000      2.00000
     40      -7.5970      2.00000
     41      -1.7937      2.00000
     42      -1.7342      2.00000
     43      -1.6864      2.00000
     44      -1.6777      2.00000
     45      -1.6263      2.00000
     46      -1.5591      2.00000
     47      -1.4985      2.00000
     48      -1.4449      2.00000
     49      -1.4420      2.00000
     50      -1.4065      2.00000
     51      -1.4028      2.00000
     52      -1.3633      2.00000
     53      -1.3276      2.00000
     54      -1.2921      2.00000
     55      -1.2854      2.00000
     56      -1.2494      2.00000
     57      -1.2039      2.00000
     58      -1.1981      2.00000
     59      -1.1264      2.00000
     60      -1.0785      2.00000
     61      -1.0747      2.00000
     62      -1.0338      2.00000
     63      -0.9942      2.00000
     64      -0.9904      2.00000
     65      -0.9842      2.00000
     66      -0.9710      2.00000
     67      -0.9555      2.00000
     68      -0.9522      2.00000
     69      -0.9308      2.00000
     70      -0.8950      2.00000
     71      -0.8895      2.00000
     72      -0.8847      2.00000
     73      -0.8519      2.00000
     74      -0.8220      2.00000
     75      -0.8193      2.00000
     76      -0.7868      2.00000
     77      -0.7838      2.00000
     78      -0.7741      2.00000
     79      -0.7549      2.00000
     80      -0.7079      2.00000
     81      -0.6752      2.00000
     82      -0.6660      2.00000
     83      -0.6293      2.00000
     84      -0.6136      2.00000
     85      -0.6046      2.00000
     86      -0.5851      2.00000
     87      -0.5514      2.00000
     88      -0.5223      2.00000
     89      -0.5115      2.00000
     90      -0.4778      2.00000
     91      -0.4508      2.00000
     92      -0.4392      2.00000
     93      -0.4268      2.00000
     94      -0.3836      2.00000
     95      -0.3707      2.00000
     96      -0.3418      2.00000
     97      -0.3258      2.00000
     98      -0.3162      2.00000
     99      -0.2927      2.00000
    100      -0.2877      2.00000
    101      -0.2547      2.00000
    102      -0.2359      2.00000
    103      -0.2316      2.00000
    104      -0.1987      2.00000
    105      -0.1762      2.00000
    106      -0.1709      2.00000
    107      -0.1447      2.00000
    108      -0.1219      2.00000
    109      -0.0958      2.00000
    110      -0.0824      2.00000
    111      -0.0301      2.00000
    112      -0.0119      2.00000
    113       0.1066      2.00000
    114       0.1555      2.00000
    115       0.1975      2.00000
    116       0.2073      2.00000
    117       0.2098      2.00000
    118       0.2375      2.00000
    119       0.2623      2.00000
    120       0.2717      2.00000
    121       0.2807      2.00000
    122       0.3192      2.00000
    123       0.3855      2.00000
    124       0.4240      2.00000
    125       0.4308      2.00000
    126       0.4427      2.00000
    127       0.5106      2.00000
    128       0.5447      2.00000
    129       0.5498      2.00000
    130       0.5532      2.00000
    131       0.5668      2.00000
    132       0.5791      2.00000
    133       0.6172      2.00000
    134       0.6690      2.00000
    135       0.7222      2.00000
    136       0.7378      2.00000
    137       0.7433      2.00000
    138       0.7444      2.00000
    139       0.7579      2.00000
    140       0.8099      2.00000
    141       0.8114      2.00000
    142       0.8260      2.00000
    143       0.8505      2.00000
    144       0.8685      2.00000
    145       0.8758      2.00000
    146       0.9175      2.00000
    147       0.9681      2.00000
    148       0.9958      2.00000
    149       1.0208      2.00000
    150       1.0560      2.00000
    151       1.0949      2.00000
    152       1.1208      2.00000
    153       1.1327      2.00000
    154       1.1831      2.00000
    155       1.1961      2.00000
    156       1.2038      2.00000
    157       1.2258      2.00000
    158       1.2355      2.00000
    159       1.2744      2.00000
    160       1.3413      2.00000
    161       1.3886      2.00000
    162       1.4317      2.00000
    163       1.4958      2.00000
    164       1.5249      2.00000
    165       1.5728      2.00000
    166       1.5869      2.00000
    167       1.6098      2.00000
    168       1.6364      2.00000
    169       1.7917      2.00000
    170       1.7958      2.00000
    171       1.9125      2.00000
    172       1.9281      2.00000
    173       2.0365      2.00000
    174       2.0497      2.00000
    175       2.0640      2.00000
    176       2.0935      2.00000
    177       3.8713      0.00000
    178       4.0338      0.00000
    179       4.0432      0.00000
    180       4.1562      0.00000
    181       4.1935      0.00000
    182       4.3760      0.00000
    183       4.3771      0.00000
    184       4.4245      0.00000
    185       4.4511      0.00000
    186       4.4691      0.00000
    187       4.5455      0.00000
    188       4.5619      0.00000
    189       4.5884      0.00000
    190       4.5922      0.00000
    191       4.6330      0.00000
    192       4.6410      0.00000
    193       4.6699      0.00000
    194       4.7319      0.00000
    195       4.7609      0.00000
    196       4.7661      0.00000
    197       4.8323      0.00000
    198       4.8620      0.00000
    199       4.8679      0.00000
    200       4.9827      0.00000
    201       5.1087      0.00000
    202       5.3022      0.00000
    203       5.6127      0.00000
    204       5.7527      0.00000
    205       5.9552      0.00000
    206       5.9760      0.00000
    207       5.9888      0.00000
    208       6.0230      0.00000
    209       7.1832      0.00000
    210       7.2878      0.00000
    211       7.3005      0.00000

 k-point     2 :       0.2500    0.0000   -0.0000
  band No.  band energies     occupation 
      1     -10.8010      2.00000
      2     -10.6908      2.00000
      3     -10.6606      2.00000
      4     -10.5017      2.00000
      5     -10.4492      2.00000
      6     -10.2261      2.00000
      7     -10.1812      2.00000
      8     -10.0236      2.00000
      9      -9.8674      2.00000
     10      -9.8628      2.00000
     11      -9.8401      2.00000
     12      -9.8184      2.00000
     13      -9.8139      2.00000
     14      -9.7685      2.00000
     15      -9.7569      2.00000
     16      -9.7133      2.00000
     17      -9.6987      2.00000
     18      -9.6865      2.00000
     19      -9.6674      2.00000
     20      -9.6635      2.00000
     21      -9.6601      2.00000
     22      -9.6300      2.00000
     23      -9.6157      2.00000
     24      -9.6017      2.00000
     25      -9.5780      2.00000
     26      -9.5777      2.00000
     27      -9.5521      2.00000
     28      -9.5360      2.00000
     29      -9.5269      2.00000
     30      -9.5200      2.00000
     31      -9.5102      2.00000
     32      -9.4857      2.00000
     33      -8.1933      2.00000
     34      -8.0861      2.00000
     35      -8.0781      2.00000
     36      -7.8474      2.00000
     37      -7.8243      2.00000
     38      -7.6481      2.00000
     39      -7.5954      2.00000
     40      -7.5693      2.00000
     41      -1.7715      2.00000
     42      -1.7177      2.00000
     43      -1.6872      2.00000
     44      -1.6630      2.00000
     45      -1.6203      2.00000
     46      -1.5806      2.00000
     47      -1.5310      2.00000
     48      -1.5146      2.00000
     49      -1.4627      2.00000
     50      -1.4186      2.00000
     51      -1.3646      2.00000
     52      -1.3500      2.00000
     53      -1.3198      2.00000
     54      -1.2888      2.00000
     55      -1.2704      2.00000
     56      -1.2411      2.00000
     57      -1.1964      2.00000
     58      -1.1703      2.00000
     59      -1.1480      2.00000
     60      -1.0985      2.00000
     61      -1.0862      2.00000
     62      -1.0521      2.00000
     63      -1.0185      2.00000
     64      -1.0049      2.00000
     65      -0.9891      2.00000
     66      -0.9702      2.00000
     67      -0.9495      2.00000
     68      -0.9360      2.00000
     69      -0.9126      2.00000
     70      -0.9057      2.00000
     71      -0.8826      2.00000
     72      -0.8750      2.00000
     73      -0.8526      2.00000
     74      -0.8420      2.00000
     75      -0.8071      2.00000
     76      -0.7859      2.00000
     77      -0.7831      2.00000
     78      -0.7780      2.00000
     79      -0.7349      2.00000
     80      -0.7243      2.00000
     81      -0.6786      2.00000
     82      -0.6493      2.00000
     83      -0.6259      2.00000
     84      -0.6194      2.00000
     85      -0.6063      2.00000
     86      -0.5610      2.00000
     87      -0.5525      2.00000
     88      -0.5245      2.00000
     89      -0.4778      2.00000
     90      -0.4666      2.00000
     91      -0.4484      2.00000
     92      -0.4368      2.00000
     93      -0.4100      2.00000
     94      -0.3841      2.00000
     95      -0.3711      2.00000
     96      -0.3543      2.00000
     97      -0.3449      2.00000
     98      -0.3322      2.00000
     99      -0.3062      2.00000
    100      -0.2831      2.00000
    101      -0.2706      2.00000
    102      -0.2522      2.00000
    103      -0.1946      2.00000
    104      -0.1904      2.00000
    105      -0.1798      2.00000
    106      -0.1460      2.00000
    107      -0.1281      2.00000
    108      -0.1235      2.00000
    109      -0.1145      2.00000
    110      -0.1003      2.00000
    111      -0.0663      2.00000
    112      -0.0136      2.00000
    113       0.1131      2.00000
    114       0.1395      2.00000
    115       0.1605      2.00000
    116       0.1779      2.00000
    117       0.2070      2.00000
    118       0.2566      2.00000
    119       0.2761      2.00000
    120       0.2928      2.00000
    121       0.3120      2.00000
    122       0.3664      2.00000
    123       0.3783      2.00000
    124       0.3846      2.00000
    125       0.4432      2.00000
    126       0.4797      2.00000
    127       0.5021      2.00000
    128       0.5370      2.00000
    129       0.5556      2.00000
    130       0.5841      2.00000
    131       0.5968      2.00000
    132       0.6182      2.00000
    133       0.6301      2.00000
    134       0.6553      2.00000
    135       0.6831      2.00000
    136       0.7155      2.00000
    137       0.7288      2.00000
    138       0.7483      2.00000
    139       0.7863      2.00000
    140       0.7909      2.00000
    141       0.8053      2.00000
    142       0.8420      2.00000
    143       0.8472      2.00000
    144       0.8639      2.00000
    145       0.8933      2.00000
    146       0.9297      2.00000
    147       1.0021      2.00000
    148       1.0158      2.00000
    149       1.0199      2.00000
    150       1.0403      2.00000
    151       1.0502      2.00000
    152       1.1140      2.00000
    153       1.1586      2.00000
    154       1.1780      2.00000
    155       1.1863      2.00000
    156       1.1888      2.00000
    157       1.2163      2.00000
    158       1.2443      2.00000
    159       1.2762      2.00000
    160       1.3313      2.00000
    161       1.3883      2.00000
    162       1.4456      2.00000
    163       1.5064      2.00000
    164       1.5169      2.00000
    165       1.5627      2.00000
    166       1.5895      2.00000
    167       1.6360      2.00000
    168       1.6590      2.00000
    169       1.7863      2.00000
    170       1.8001      2.00000
    171       1.8897      2.00000
    172       1.9142      2.00000
    173       2.0058      2.00000
    174       2.0121      2.00000
    175       2.0416      2.00000
    176       2.0540      2.00000
    177       3.9321      0.00000
    178       4.0230      0.00000
    179       4.0656      0.00000
    180       4.1771      0.00000
    181       4.1960      0.00000
    182       4.3323      0.00000
    183       4.3546      0.00000
    184       4.4248      0.00000
    185       4.4540      0.00000
    186       4.4822      0.00000
    187       4.4994      0.00000
    188       4.5378      0.00000
    189       4.6057      0.00000
    190       4.6158      0.00000
    191       4.6312      0.00000
    192       4.6540      0.00000
    193       4.6797      0.00000
    194       4.6867      0.00000
    195       4.7282      0.00000
    196       4.7919      0.00000
    197       4.8140      0.00000
    198       4.8598      0.00000
    199       4.8901      0.00000
    200       4.9621      0.00000
    201       5.2364      0.00000
    202       5.3871      0.00000
    203       5.6237      0.00000
    204       5.7653      0.00000
    205       5.8515      0.00000
    206       5.8701      0.00000
    207       5.9927      0.00000
    208       6.0048      0.00000
    209       7.2967      0.00000
    210       7.3301      0.00000
    211       7.3990      0.00000

 k-point     3 :       0.5000    0.0000    0.0000
  band No.  band energies     occupation 
      1     -10.7763      2.00000
      2     -10.7165      2.00000
      3     -10.6693      2.00000
      4     -10.5000      2.00000
      5     -10.4460      2.00000
      6     -10.2268      2.00000
      7     -10.1676      2.00000
      8     -10.0338      2.00000
      9      -9.8735      2.00000
     10      -9.8706      2.00000
     11      -9.8421      2.00000
     12      -9.8194      2.00000
     13      -9.8169      2.00000
     14      -9.7577      2.00000
     15      -9.7384      2.00000
     16      -9.7138      2.00000
     17      -9.7078      2.00000
     18      -9.6791      2.00000
     19      -9.6728      2.00000
     20      -9.6652      2.00000
     21      -9.6406      2.00000
     22      -9.6386      2.00000
     23      -9.6126      2.00000
     24      -9.5890      2.00000
     25      -9.5864      2.00000
     26      -9.5834      2.00000
     27      -9.5504      2.00000
     28      -9.5443      2.00000
     29      -9.5222      2.00000
     30      -9.5219      2.00000
     31      -9.5019      2.00000
     32      -9.4995      2.00000
     33      -8.1986      2.00000
     34      -8.0838      2.00000
     35      -8.0765      2.00000
     36      -7.8464      2.00000
     37      -7.8250      2.00000
     38      -7.6653      2.00000
     39      -7.5929      2.00000
     40      -7.5549      2.00000
     41      -1.7333      2.00000
     42      -1.7153      2.00000
     43      -1.6660      2.00000
     44      -1.6456      2.00000
     45      -1.6318      2.00000
     46      -1.6103      2.00000
     47      -1.5640      2.00000
     48      -1.5407      2.00000
     49      -1.4887      2.00000
     50      -1.4174      2.00000
     51      -1.3872      2.00000
     52      -1.3519      2.00000
     53      -1.2835      2.00000
     54      -1.2793      2.00000
     55      -1.2571      2.00000
     56      -1.2218      2.00000
     57      -1.2121      2.00000
     58      -1.1591      2.00000
     59      -1.1487      2.00000
     60      -1.1290      2.00000
     61      -1.1213      2.00000
     62      -1.0704      2.00000
     63      -1.0151      2.00000
     64      -0.9907      2.00000
     65      -0.9847      2.00000
     66      -0.9592      2.00000
     67      -0.9366      2.00000
     68      -0.9273      2.00000
     69      -0.9132      2.00000
     70      -0.9104      2.00000
     71      -0.8987      2.00000
     72      -0.8745      2.00000
     73      -0.8274      2.00000
     74      -0.8250      2.00000
     75      -0.8125      2.00000
     76      -0.8050      2.00000
     77      -0.7791      2.00000
     78      -0.7760      2.00000
     79      -0.7580      2.00000
     80      -0.7377      2.00000
     81      -0.6653      2.00000
     82      -0.6419      2.00000
     83      -0.6317      2.00000
     84      -0.6027      2.00000
     85      -0.5970      2.00000
     86      -0.5691      2.00000
     87      -0.5422      2.00000
     88      -0.4842      2.00000
     89      -0.4751      2.00000
     90      -0.4726      2.00000
     91      -0.4570      2.00000
     92      -0.4382      2.00000
     93      -0.3980      2.00000
     94      -0.3937      2.00000
     95      -0.3764      2.00000
     96      -0.3561      2.00000
     97      -0.3235      2.00000
     98      -0.3214      2.00000
     99      -0.3080      2.00000
    100      -0.2993      2.00000
    101      -0.2747      2.00000
    102      -0.2734      2.00000
    103      -0.2041      2.00000
    104      -0.1740      2.00000
    105      -0.1553      2.00000
    106      -0.1458      2.00000
    107      -0.1302      2.00000
    108      -0.1297      2.00000
    109      -0.1190      2.00000
    110      -0.0876      2.00000
    111      -0.0853      2.00000
    112      -0.0156      2.00000
    113       0.0663      2.00000
    114       0.0862      2.00000
    115       0.1271      2.00000
    116       0.1697      2.00000
    117       0.2137      2.00000
    118       0.2293      2.00000
    119       0.2893      2.00000
    120       0.3236      2.00000
    121       0.3437      2.00000
    122       0.4157      2.00000
    123       0.4288      2.00000
    124       0.4503      2.00000
    125       0.4703      2.00000
    126       0.4924      2.00000
    127       0.5180      2.00000
    128       0.5416      2.00000
    129       0.5652      2.00000
    130       0.5761      2.00000
    131       0.5826      2.00000
    132       0.6028      2.00000
    133       0.6087      2.00000
    134       0.6670      2.00000
    135       0.6713      2.00000
    136       0.6811      2.00000
    137       0.7389      2.00000
    138       0.7541      2.00000
    139       0.7733      2.00000
    140       0.7908      2.00000
    141       0.7950      2.00000
    142       0.8298      2.00000
    143       0.8462      2.00000
    144       0.8986      2.00000
    145       0.9106      2.00000
    146       0.9500      2.00000
    147       0.9631      2.00000
    148       0.9991      2.00000
    149       1.0325      2.00000
    150       1.0649      2.00000
    151       1.0956      2.00000
    152       1.0989      2.00000
    153       1.1177      2.00000
    154       1.1226      2.00000
    155       1.1790      2.00000
    156       1.1958      2.00000
    157       1.2256      2.00000
    158       1.2642      2.00000
    159       1.2812      2.00000
    160       1.3098      2.00000
    161       1.4299      2.00000
    162       1.4453      2.00000
    163       1.4866      2.00000
    164       1.5056      2.00000
    165       1.6152      2.00000
    166       1.6204      2.00000
    167       1.6409      2.00000
[...]
    143       0.8842      2.00000
    144       0.8846      2.00000
    145       0.9531      2.00000
    146       0.9546      2.00000
    147       1.0466      2.00000
    148       1.0483      2.00000
    149       1.0724      2.00000
    150       1.0746      2.00000
    151       1.1076      2.00000
    152       1.1086      2.00000
    153       1.1294      2.00000
    154       1.1305      2.00000
    155       1.1961      2.00000
    156       1.1969      2.00000
    157       1.2425      2.00000
    158       1.2441      2.00000
    159       1.2976      2.00000
    160       1.2982      2.00000
    161       1.4827      2.00000
    162       1.4845      2.00000
    163       1.6105      2.00000
    164       1.6148      2.00000
    165       1.6253      2.00000
    166       1.6270      2.00000
    167       1.7146      2.00000
    168       1.7173      2.00000
    169       1.7865      2.00000
    170       1.7875      2.00000
    171       1.8704      2.00000
    172       1.8746      2.00000
    173       1.9018      2.00000
    174       1.9047      2.00000
    175       2.0191      2.00000
    176       2.0202      2.00000
    177       3.8407      0.00000
    178       3.8435      0.00000
    179       4.0237      0.00000
    180       4.0272      0.00000
    181       4.1341      0.00000
    182       4.1356      0.00000
    183       4.2859      0.00000
    184       4.2868      0.00000
    185       4.3553      0.00000
    186       4.3560      0.00000
    187       4.4601      0.00000
    188       4.4610      0.00000
    189       4.6347      0.00000
    190       4.6370      0.00000
    191       4.7096      0.00000
    192       4.7106      0.00000
    193       4.8030      0.00000
    194       4.8043      0.00000
    195       4.8533      0.00000
    196       4.8542      0.00000
    197       4.9210      0.00000
    198       4.9223      0.00000
    199       5.0452      0.00000
    200       5.0482      0.00000
    201       5.5916      0.00000
    202       5.5936      0.00000
    203       5.6316      0.00000
    204       5.6325      0.00000
    205       5.6705      0.00000
    206       5.6711      0.00000
    207       5.8221      0.00000
    208       5.8228      0.00000
    209       7.3517      0.00000
    210       7.3550      0.00000
    211       7.5261      0.00000

 k-point    36 :       0.5000    0.5000    0.5000
  band No.  band energies     occupation 
      1     -10.7400      2.00000
      2     -10.7386      2.00000
      3     -10.6116      2.00000
      4     -10.6113      2.00000
      5     -10.3552      2.00000
      6     -10.3551      2.00000
      7     -10.0873      2.00000
      8     -10.0868      2.00000
      9      -9.8782      2.00000
     10      -9.8759      2.00000
     11      -9.7863      2.00000
     12      -9.7853      2.00000
     13      -9.7603      2.00000
     14      -9.7597      2.00000
     15      -9.7199      2.00000
     16      -9.7183      2.00000
     17      -9.6965      2.00000
     18      -9.6956      2.00000
     19      -9.6728      2.00000
     20      -9.6714      2.00000
     21      -9.6671      2.00000
     22      -9.6667      2.00000
     23      -9.6047      2.00000
     24      -9.6040      2.00000
     25      -9.5832      2.00000
     26      -9.5823      2.00000
     27      -9.5549      2.00000
     28      -9.5538      2.00000
     29      -9.5199      2.00000
     30      -9.5195      2.00000
     31      -9.5100      2.00000
     32      -9.5088      2.00000
     33      -8.1651      2.00000
     34      -8.1641      2.00000
     35      -7.9716      2.00000
     36      -7.9710      2.00000
     37      -7.7322      2.00000
     38      -7.7320      2.00000
     39      -7.5553      2.00000
     40      -7.5547      2.00000
     41      -1.7534      2.00000
     42      -1.7525      2.00000
     43      -1.6499      2.00000
     44      -1.6490      2.00000
     45      -1.6039      2.00000
     46      -1.6023      2.00000
     47      -1.5135      2.00000
     48      -1.5106      2.00000
     49      -1.4590      2.00000
     50      -1.4575      2.00000
     51      -1.4297      2.00000
     52      -1.4282      2.00000
     53      -1.3493      2.00000
     54      -1.3490      2.00000
     55      -1.2574      2.00000
     56      -1.2539      2.00000
     57      -1.2394      2.00000
     58      -1.2352      2.00000
     59      -1.1115      2.00000
     60      -1.1101      2.00000
     61      -1.0152      2.00000
     62      -1.0138      2.00000
     63      -0.9816      2.00000
     64      -0.9757      2.00000
     65      -0.9647      2.00000
     66      -0.9638      2.00000
     67      -0.9378      2.00000
     68      -0.9354      2.00000
     69      -0.8858      2.00000
     70      -0.8801      2.00000
     71      -0.8547      2.00000
     72      -0.8514      2.00000
     73      -0.8388      2.00000
     74      -0.8366      2.00000
     75      -0.8109      2.00000
     76      -0.8105      2.00000
     77      -0.8032      2.00000
     78      -0.7961      2.00000
     79      -0.7133      2.00000
     80      -0.7131      2.00000
     81      -0.6642      2.00000
     82      -0.6640      2.00000
     83      -0.5974      2.00000
     84      -0.5940      2.00000
     85      -0.5603      2.00000
     86      -0.5592      2.00000
     87      -0.5212      2.00000
     88      -0.5203      2.00000
     89      -0.4852      2.00000
     90      -0.4842      2.00000
     91      -0.4469      2.00000
     92      -0.4463      2.00000
     93      -0.3725      2.00000
     94      -0.3706      2.00000
     95      -0.3537      2.00000
     96      -0.3517      2.00000
     97      -0.3263      2.00000
     98      -0.3260      2.00000
     99      -0.2806      2.00000
    100      -0.2796      2.00000
    101      -0.2766      2.00000
    102      -0.2756      2.00000
    103      -0.2247      2.00000
    104      -0.2230      2.00000
    105      -0.1795      2.00000
    106      -0.1791      2.00000
    107      -0.1520      2.00000
    108      -0.1503      2.00000
    109      -0.1113      2.00000
    110      -0.1106      2.00000
    111      -0.0501      2.00000
    112      -0.0481      2.00000
    113       0.0652      2.00000
    114       0.0664      2.00000
    115       0.1743      2.00000
    116       0.1764      2.00000
    117       0.2618      2.00000
    118       0.2623      2.00000
    119       0.3153      2.00000
    120       0.3173      2.00000
    121       0.3942      2.00000
    122       0.3948      2.00000
    123       0.3977      2.00000
    124       0.3998      2.00000
    125       0.4482      2.00000
    126       0.4498      2.00000
    127       0.4817      2.00000
    128       0.4846      2.00000
    129       0.5422      2.00000
    130       0.5453      2.00000
    131       0.5805      2.00000
    132       0.5814      2.00000
    133       0.6032      2.00000
    134       0.6051      2.00000
    135       0.6345      2.00000
    136       0.6355      2.00000
    137       0.7028      2.00000
    138       0.7035      2.00000
    139       0.7324      2.00000
    140       0.7334      2.00000
    141       0.7689      2.00000
    142       0.7700      2.00000
    143       0.9088      2.00000
    144       0.9105      2.00000
    145       0.9414      2.00000
    146       0.9424      2.00000
    147       1.0643      2.00000
    148       1.0664      2.00000
    149       1.0844      2.00000
    150       1.0867      2.00000
    151       1.1068      2.00000
    152       1.1074      2.00000
    153       1.1217      2.00000
    154       1.1234      2.00000
    155       1.2070      2.00000
    156       1.2076      2.00000
    157       1.2368      2.00000
    158       1.2385      2.00000
    159       1.3007      2.00000
    160       1.3016      2.00000
    161       1.5151      2.00000
    162       1.5155      2.00000
    163       1.6141      2.00000
    164       1.6180      2.00000
    165       1.6208      2.00000
    166       1.6225      2.00000
    167       1.7310      2.00000
    168       1.7343      2.00000
    169       1.8060      2.00000
    170       1.8062      2.00000
    171       1.8737      2.00000
    172       1.8782      2.00000
    173       1.8975      2.00000
    174       1.9000      2.00000
    175       2.0575      2.00000
    176       2.0587      2.00000
    177       3.7413      0.00000
    178       3.7433      0.00000
    179       3.9461      0.00000
    180       3.9490      0.00000
    181       4.0737      0.00000
    182       4.0753      0.00000
    183       4.2600      0.00000
    184       4.2604      0.00000
    185       4.3491      0.00000
    186       4.3497      0.00000
    187       4.4564      0.00000
    188       4.4571      0.00000
    189       4.6495      0.00000
    190       4.6522      0.00000
    191       4.7354      0.00000
    192       4.7360      0.00000
    193       4.8519      0.00000
    194       4.8537      0.00000
    195       4.8833      0.00000
    196       4.8837      0.00000
    197       4.9874      0.00000
    198       4.9876      0.00000
    199       5.0615      0.00000
    200       5.0653      0.00000
    201       5.5755      0.00000
    202       5.5782      0.00000
    203       5.6052      0.00000
    204       5.6066      0.00000
    205       5.6388      0.00000
    206       5.6393      0.00000
    207       5.8352      0.00000
    208       5.8364      0.00000
    209       7.2700      0.00000
    210       7.2736      0.00000
    211       7.5385      0.00000


--------------------------------------------------------------------------------------------------------


 soft charge-density along one line, spin component           1
         0         1         2         3         4         5         6         7         8         9
 total charge-density along one line
 
 pseudopotential strength for first ion, spin component:           1
 -6.434   0.000   0.000   0.001   0.000  -6.569   0.000   0.000
  0.000  -6.442   0.001  -0.000  -0.001   0.000  -6.577   0.001
  0.000   0.001  -6.436  -0.001  -0.001   0.000   0.001  -6.571
  0.001  -0.000  -0.001  -6.439   0.001   0.001  -0.000  -0.001
  0.000  -0.001  -0.001   0.001  -6.425   0.000  -0.001  -0.001
 -6.569   0.000   0.000   0.001   0.000  -6.674   0.000   0.000
  0.000  -6.577   0.001  -0.000  -0.001   0.000  -6.681   0.001
  0.000   0.001  -6.571  -0.001  -0.001   0.000   0.001  -6.676
  0.001  -0.000  -0.001  -6.574   0.001   0.001  -0.000  -0.000
  0.000  -0.001  -0.001   0.001  -6.561   0.000  -0.001  -0.001
  0.000   0.001   0.000   0.000  -0.001   0.000   0.001   0.000
  0.001   0.001   0.000   0.000  -0.002   0.001   0.001  -0.000
  0.001  -0.006  -0.004   0.000  -0.006   0.001  -0.006  -0.004
  0.000   0.006  -0.008   0.002  -0.000   0.000   0.006  -0.008
  0.006   0.000  -0.001  -0.006   0.002   0.006   0.000  -0.001
  0.002  -0.008  -0.004   0.000  -0.008   0.002  -0.007  -0.004
  0.000   0.008  -0.010   0.002  -0.000   0.000   0.007  -0.009
  0.008   0.000  -0.001  -0.008   0.002   0.007   0.000  -0.001
 total augmentation occupancy for first ion, spin component:           1
  2.277   0.005  -0.052   0.007   0.023  -0.298  -0.008   0.053  -0.012  -0.020  -0.064   0.014  -0.001   0.004  -0.020   0.001
  0.005   2.294   0.060  -0.002  -0.114  -0.008  -0.318  -0.059  -0.001   0.114  -0.139   0.023   0.066  -0.027   0.001  -0.006
 -0.052   0.060   3.829  -0.091   0.055   0.053  -0.059  -1.687   0.077  -0.061   0.176  -0.021  -0.057  -0.220   0.000   0.002
  0.007  -0.002  -0.091   2.297   0.129  -0.012  -0.001   0.077  -0.298  -0.119  -0.062   0.013  -0.000   0.010   0.043  -0.000
  0.023  -0.114   0.055   0.129   4.322  -0.020   0.114  -0.061  -0.119  -2.148   0.123  -0.025  -0.111  -0.013   0.022   0.003
 -0.298  -0.008   0.053  -0.012  -0.020   0.301   0.011  -0.053   0.017   0.016   0.055  -0.013  -0.001  -0.003   0.012   0.000
 -0.008  -0.318  -0.059  -0.001   0.114   0.011   0.323   0.058   0.004  -0.113   0.126  -0.027  -0.051   0.018  -0.001   0.003
  0.053  -0.059  -1.687   0.077  -0.061  -0.053   0.058   1.545  -0.065   0.066  -0.156   0.027   0.055   0.199   0.002  -0.004
 -0.012  -0.001   0.077  -0.298  -0.119   0.017   0.004  -0.065   0.284   0.111   0.056  -0.014  -0.000  -0.011  -0.031   0.000
 -0.020   0.114  -0.061  -0.119  -2.148   0.016  -0.113   0.066   0.111   1.976  -0.105   0.021   0.104   0.011  -0.021  -0.006
 -0.064  -0.139   0.176  -0.062   0.123   0.055   0.126  -0.156   0.056  -0.105   1.438  -0.307  -0.042   0.048  -0.012   0.004
  0.014   0.023  -0.021   0.013  -0.025  -0.013  -0.027   0.027  -0.014   0.021  -0.307   0.070   0.008  -0.011   0.003  -0.001
 -0.001   0.066  -0.057  -0.000  -0.111  -0.001  -0.051   0.055  -0.000   0.104  -0.042   0.008   0.101   0.009   0.003  -0.007
  0.004  -0.027  -0.220   0.010  -0.013  -0.003   0.018   0.199  -0.011   0.011   0.048  -0.011   0.009   0.078   0.004  -0.001
 -0.020   0.001   0.000   0.043   0.022   0.012  -0.001   0.002  -0.031  -0.021  -0.012   0.003   0.003   0.004   0.089  -0.000
  0.001  -0.006   0.002  -0.000   0.003   0.000   0.003  -0.004   0.000  -0.006   0.004  -0.001  -0.007  -0.001  -0.000   0.001
 -0.000   0.005   0.009   0.000   0.001   0.000  -0.001  -0.013   0.001  -0.001  -0.005   0.001  -0.001  -0.005  -0.000   0.000
  0.004  -0.000  -0.000  -0.005  -0.001  -0.001   0.000  -0.000   0.002   0.001   0.001  -0.000  -0.000  -0.000  -0.006   0.000


------------------------ aborting loop because EDIFF is reached ----------------------------------------


 


 total charge     
 
# of ion       s       p       d       tot
------------------------------------------
    1        0.241   0.151   9.320   9.713
    2        0.241   0.151   9.320   9.713
    3        0.239   0.147   9.323   9.709
    4        0.239   0.147   9.323   9.709
    5        0.253   0.159   9.312   9.724
    6        0.253   0.159   9.312   9.724
    7        0.241   0.152   9.320   9.713
    8        0.241   0.152   9.320   9.713
    9        1.833   1.401   0.135   3.370
   10        1.834   1.401   0.138   3.373
   11        1.835   1.398   0.139   3.372
   12        1.833   1.401   0.135   3.369
   13        1.834   1.401   0.138   3.373
   14        1.835   1.398   0.139   3.372
   15        1.834   1.401   0.138   3.373
   16        1.834   1.402   0.138   3.374
   17        1.514   2.743   0.015   4.272
   18        1.515   2.743   0.015   4.272
   19        1.517   2.745   0.012   4.275
   20        1.516   2.744   0.015   4.274
   21        1.516   2.743   0.015   4.274
   22        1.517   2.746   0.013   4.276
   23        1.513   2.748   0.016   4.277
   24        1.513   2.748   0.016   4.276
   25        1.517   2.745   0.013   4.275
   26        1.516   2.743   0.015   4.274
   27        1.513   2.747   0.016   4.276
   28        1.513   2.748   0.016   4.277
   29        1.514   2.743   0.015   4.272
   30        1.515   2.743   0.015   4.272
   31        1.516   2.743   0.015   4.274
   32        1.517   2.745   0.013   4.275
   33        1.514   2.742   0.017   4.274
   34        1.518   2.742   0.012   4.272
   35        1.518   2.743   0.012   4.273
   36        1.518   2.742   0.013   4.273
   37        1.518   2.742   0.011   4.271
   38        1.518   2.742   0.011   4.271
   39        1.518   2.742   0.012   4.272
   40        1.514   2.742   0.017   4.274
   41        1.518   2.742   0.011   4.271
   42        1.518   2.742   0.011   4.271
   43        1.514   2.742   0.017   4.274
   44        1.518   2.742   0.012   4.272
   45        1.519   2.742   0.012   4.272
   46        1.514   2.743   0.017   4.274
   47        1.518   2.742   0.013   4.273
   48        1.518   2.743   0.012   4.273
--------------------------------------------------
tot         65.137 100.214  76.094 241.445
 


--------------------------------------------------------------------------------------------------------



  FREE ENERGIE OF THE ION-ELECTRON SYSTEM (eV)
  ---------------------------------------------------
  free  energy   TOTEN  =      -119.96682115 eV

  energy  without entropy=     -119.96682115  energy(sigma->0) =     -119.96682115
 


--------------------------------------------------------------------------------------------------------




--------------------------------------------------------------------------------------------------------


 writing wavefunctions
     LOOP+:  cpu time  115.3216: real time  115.3708
    4ORBIT:  cpu time    0.0000: real time    0.0000
 


 total charge     
 
# of ion       s       p       d       tot
------------------------------------------
    1        0.241   0.151   9.320   9.713
    2        0.241   0.151   9.320   9.713
    3        0.239   0.147   9.323   9.709
    4        0.239   0.147   9.323   9.709
    5        0.253   0.159   9.312   9.724
    6        0.253   0.159   9.312   9.724
    7        0.241   0.152   9.320   9.713
    8        0.241   0.152   9.320   9.713
    9        1.833   1.401   0.135   3.370
   10        1.834   1.401   0.138   3.373
   11        1.835   1.398   0.139   3.372
   12        1.833   1.401   0.135   3.369
   13        1.834   1.401   0.138   3.373
   14        1.835   1.398   0.139   3.372
   15        1.834   1.401   0.138   3.373
   16        1.834   1.402   0.138   3.374
   17        1.514   2.743   0.015   4.272
   18        1.515   2.743   0.015   4.272
   19        1.517   2.745   0.012   4.275
   20        1.516   2.744   0.015   4.274
   21        1.516   2.743   0.015   4.274
   22        1.517   2.746   0.013   4.276
   23        1.513   2.748   0.016   4.277
   24        1.513   2.748   0.016   4.276
   25        1.517   2.745   0.013   4.275
   26        1.516   2.743   0.015   4.274
   27        1.513   2.747   0.016   4.276
   28        1.513   2.748   0.016   4.277
   29        1.514   2.743   0.015   4.272
   30        1.515   2.743   0.015   4.272
   31        1.516   2.743   0.015   4.274
   32        1.517   2.745   0.013   4.275
   33        1.514   2.742   0.017   4.274
   34        1.518   2.742   0.012   4.272
   35        1.518   2.743   0.012   4.273
   36        1.518   2.742   0.013   4.273
   37        1.518   2.742   0.011   4.271
   38        1.518   2.742   0.011   4.271
   39        1.518   2.742   0.012   4.272
   40        1.514   2.742   0.017   4.274
   41        1.518   2.742   0.011   4.271
   42        1.518   2.742   0.011   4.271
   43        1.514   2.742   0.017   4.274
   44        1.518   2.742   0.012   4.272
   45        1.519   2.742   0.012   4.272
   46        1.514   2.743   0.017   4.274
   47        1.518   2.742   0.013   4.273
   48        1.518   2.743   0.012   4.273
--------------------------------------------------
tot         65.137 100.214  76.094 241.445
 
 BZINTS: Fermi energy:    2.093455;  352.000000 electrons
         Band energy:-0.747346E+03;  BLOECHL correction:    0.000000

 total amount of memory used by VASP MPI-rank0  2761676. kBytes
=======================================================================

   base      :      30000. kBytes
   nonl-proj :     301348. kBytes
   fftplans  :      34720. kBytes
   grid      :      70000. kBytes
   one-center:        746. kBytes
   wavefun   :    2324862. kBytes
 
  
  
 General timing and accounting informations for this job:
 ========================================================
  
                  Total CPU time used (sec):      155.768
                            User time (sec):      149.965
                          System time (sec):        5.803
                         Elapsed time (sec):      158.380
  
                   Maximum memory used (kb):     4316356.
                   Average memory used (kb):           0.
  
                          Minor page faults:       417644
                          Major page faults:            0
                 Voluntary context switches:         2543
