 vasp.6.1.0 28Jan20 (build Jan 13 2021 21:44:47) complex                        
  
 executed on             LinuxIFC date 2021.09.12  19:33:05
 running on    9 total cores
 distrk:  each k-point on    1 cores,    9 groups
 distr:  one band on NCORE=   1 cores,    1 groups


--------------------------------------------------------------------------------------------------------


 INCAR:
 POTCAR:    PAW_PBE Ag 02Apr2005                  
 POTCAR:    PAW_PBE Bi 08Apr2002                  
 POTCAR:    PAW_PBE I 08Apr2002                   
 -----------------------------------------------------------------------------
|                                                                             |
|           W    W    AA    RRRRR   N    N  II  N    N   GGGG   !!!           |
|           W    W   A  A   R    R  NN   N  II  NN   N  G    G  !!!           |
|           W    W  A    A  R    R  N N  N  II  N N  N  G       !!!           |
|           W WW W  AAAAAA  RRRRR   N  N N  II  N  N N  G  GGG   !            |
|           WW  WW  A    A  R   R   N   NN  II  N   NN  G    G                |
|           W    W  A    A  R    R  N    N  II  N    N   GGGG   !!!           |
|                                                                             |
|     For optimal performance we recommend to set                             |
|       NCORE = 4 - approx SQRT(number of cores).                             |
|     NCORE specifies how many cores store one orbital (NPAR=cpu/NCORE).      |
|     This setting can greatly improve the performance of VASP for DFT.       |
|     The default, NCORE=1 might be grossly inefficient on modern             |
|     multi-core architectures or massively parallel machines. Do your        |
|     own testing!!!!                                                         |
|     Unfortunately you need to use the default for GW and RPA                |
|     calculations (for HF NCORE is supported but not extensively tested      |
|     yet).                                                                   |
|                                                                             |
 -----------------------------------------------------------------------------

 POTCAR:    PAW_PBE Ag 02Apr2005                  
   VRHFIN =Ag : s1 d10                                                                              
   LEXCH  = PE                                                                                      
   EATOM  =  1037.2675 eV,   76.2370 Ry                                                             
                                                                                                    
   TITEL  = PAW_PBE Ag 02Apr2005                                                                    
   LULTRA =        F    use ultrasoft PP ?                                                          
   IUNSCR =        1    unscreen: 0-lin 1-nonlin 2-no                                               
   RPACOR =    2.000    partial core radius                                                         
   POMASS =  107.868; ZVAL   =   11.000    mass and valenz                                          
   RCORE  =    2.500    outmost cutoff radius                                                       
   RWIGS  =    2.840; RWIGS  =    1.503    wigner-seitz radius (au A)                               
   ENMAX  =  249.844; ENMIN  =  187.383 eV                                                          
   ICORE  =        3    local potential                                                             
   LCOR   =        T    correct aug charges                                                         
   LPAW   =        T    paw PP                                                                      
   EAUG   =  412.496                                                                                
   DEXC   =    0.000                                                                                
   RMAX   =    2.560    core radius for proj-oper                                                   
   RAUG   =    1.300    factor for augmentation sphere                                              
   RDEP   =    2.576    radius for radial grids                                                     
   RDEPT  =    2.072    core radius for aug-charge                                                  
                                                                                                    
   Atomic configuration                                                                             
   12 entries                                                                                       
     n  l   j            E        occ.                                                              
     1  0  0.50    -25324.9161   2.0000                                                             
     2  0  0.50     -3728.5341   2.0000                                                             
     2  1  1.50     -3344.0404   6.0000                                                             
     3  0  0.50      -683.5581   2.0000                                                             
     3  1  1.50      -557.3225   6.0000                                                             
     3  2  2.50      -358.3853  10.0000                                                             
     4  0  0.50       -95.0341   2.0000                                                             
     4  1  1.50       -58.5511   6.0000                                                             
     4  2  2.50        -7.4440  10.0000                                                             
     5  0  0.50        -4.4045   1.0000                                                             
     5  1  0.50        -1.3606   0.0000                                                             
     4  3  2.50        -1.3606   0.0000                                                             
   Description                                                                                      
     l       E           TYP  RCUT    TYP  RCUT                                                     
     2     -7.4439781     23  2.400                                                                 
     2     -8.8045607     23  2.400                                                                 
     0     -4.4044681     23  2.400                                                                 
     0      1.9520038     23  2.400                                                                 
     1     -1.3605826     23  2.500                                                                 
     1     27.2116520     23  2.500                                                                 
     3     -4.0817478     23  2.400                                                                 
  local pseudopotential read in
  partial core-charges read in
  partial kinetic energy density read in
  atomic valenz-charges read in
  non local Contribution for L=           2  read in
    real space projection operators read in
  non local Contribution for L=           2  read in
    real space projection operators read in
  non local Contribution for L=           0  read in
    real space projection operators read in
  non local Contribution for L=           0  read in
    real space projection operators read in
  non local Contribution for L=           1  read in
    real space projection operators read in
  non local Contribution for L=           1  read in
    real space projection operators read in
    PAW grid and wavefunctions read in
 
   number of l-projection  operators is LMAX  =           6
   number of lm-projection operators is LMMAX =          18
 
 POTCAR:    PAW_PBE Bi 08Apr2002                  
   VRHFIN =Bi:                                                                                      
   LEXCH  = PE                                                                                      
   EATOM  =   150.8133 eV,   11.0845 Ry                                                             
                                                                                                    
   TITEL  = PAW_PBE Bi 08Apr2002                                                                    
   LULTRA =        F    use ultrasoft PP ?                                                          
   IUNSCR =        1    unscreen: 0-lin 1-nonlin 2-no                                               
   RPACOR =    2.200    partial core radius                                                         
   POMASS =  208.980; ZVAL   =    5.000    mass and valenz                                          
   RCORE  =    3.000    outmost cutoff radius                                                       
   RWIGS  =    3.090; RWIGS  =    1.635    wigner-seitz radius (au A)                               
   ENMAX  =  105.037; ENMIN  =   78.777 eV                                                          
   ICORE  =        3    local potential                                                             
   LCOR   =        T    correct aug charges                                                         
   LPAW   =        T    paw PP                                                                      
   EAUG   =  265.427                                                                                
   DEXC   =    0.000                                                                                
   RMAX   =    3.067    core radius for proj-oper                                                   
   RAUG   =    1.300    factor for augmentation sphere                                              
   RDEP   =    3.012    radius for radial grids                                                     
   RDEPT  =    2.604    core radius for aug-charge                                                  
                                                                                                    
   Atomic configuration                                                                             
   17 entries                                                                                       
     n  l   j            E        occ.                                                              
     1  0  0.50    -90639.6582   2.0000                                                             
     2  0  0.50    -16282.4667   2.0000                                                             
     2  1  1.50    -13922.8287   6.0000                                                             
     3  0  0.50     -3930.4763   2.0000                                                             
     3  1  1.50     -3256.7013   6.0000                                                             
     3  2  2.50     -2581.6169  10.0000                                                             
     4  0  0.50      -902.2614   2.0000                                                             
     4  1  1.50      -681.5915   6.0000                                                             
     4  2  2.50      -429.8249  10.0000                                                             
     4  3  3.50      -152.6004  14.0000                                                             
     5  0  0.50      -157.7156   2.0000                                                             
     5  1  1.50       -95.8054   6.0000                                                             
     5  2  2.50       -27.0806  10.0000                                                             
     6  0  0.50       -14.4732   2.0000                                                             
     6  1  1.50        -4.5702   3.0000                                                             
     6  2  2.50        -2.7212   0.0000                                                             
     5  3  2.50        -2.7212   0.0000                                                             
   Description                                                                                      
     l       E           TYP  RCUT    TYP  RCUT                                                     
     0    -14.4732299     23  3.000                                                                 
     0    -12.2452434     23  3.000                                                                 
     1     -4.5701666     23  3.000                                                                 
     1    -13.6058260     23  3.000                                                                 
     2     -2.7211652     23  3.000                                                                 
     3     -1.3605826      7  3.000                                                                 
  local pseudopotential read in
  partial core-charges read in
  partial kinetic energy density read in
  kinetic energy density of atom read in
  atomic valenz-charges read in
  non local Contribution for L=           0  read in
    real space projection operators read in
  non local Contribution for L=           0  read in
    real space projection operators read in
  non local Contribution for L=           1  read in
    real space projection operators read in
  non local Contribution for L=           1  read in
    real space projection operators read in
  non local Contribution for L=           2  read in
    real space projection operators read in
    PAW grid and wavefunctions read in
 
   number of l-projection  operators is LMAX  =           5
   number of lm-projection operators is LMMAX =          13
 
 POTCAR:    PAW_PBE I 08Apr2002                   
   VRHFIN =I : s2p5                                                                                 
   LEXCH  = PE                                                                                      
   EATOM  =   315.8678 eV,   23.2156 Ry                                                             
                                                                                                    
   TITEL  = PAW_PBE I 08Apr2002                                                                     
   LULTRA =        F    use ultrasoft PP ?                                                          
   IUNSCR =        1    unscreen: 0-lin 1-nonlin 2-no                                               
   RPACOR =    2.200    partial core radius                                                         
   POMASS =  126.904; ZVAL   =    7.000    mass and valenz                                          
   RCORE  =    2.300    outmost cutoff radius                                                       
   RWIGS  =    2.810; RWIGS  =    1.487    wigner-seitz radius (au A)                               
   ENMAX  =  175.647; ENMIN  =  131.735 eV                                                          
   ICORE  =        3    local potential                                                             
   LCOR   =        T    correct aug charges                                                         
   LPAW   =        T    paw PP                                                                      
   EAUG   =  370.139                                                                                
   DEXC   =    0.000                                                                                
   RMAX   =    2.359    core radius for proj-oper                                                   
   RAUG   =    1.300    factor for augmentation sphere                                              
   RDEP   =    2.392    radius for radial grids                                                     
   RDEPT  =    2.170    core radius for aug-charge                                                  
                                                                                                    
   Atomic configuration                                                                             
   13 entries                                                                                       
     n  l   j            E        occ.                                                              
     1  0  0.50    -32976.3739   2.0000                                                             
     2  0  0.50     -5094.5933   2.0000                                                             
     2  1  1.50     -4572.0131   6.0000                                                             
     3  0  0.50     -1028.2813   2.0000                                                             
     3  1  1.50      -859.0250   6.0000                                                             
     3  2  2.50      -605.7620  10.0000                                                             
     4  0  0.50      -180.5540   2.0000                                                             
     4  1  1.50      -127.5306   6.0000                                                             
     4  2  2.50       -50.2720  10.0000                                                             
     5  0  0.50       -17.4058   2.0000                                                             
     5  1  0.50        -7.0851   5.0000                                                             
     5  2  1.50        -7.0750   0.0000                                                             
     4  3  2.50        -7.0750   0.0000                                                             
   Description                                                                                      
     l       E           TYP  RCUT    TYP  RCUT                                                     
     0    -17.4058016     23  2.300                                                                 
     0    -18.7663842     23  2.300                                                                 
     1     -7.0850686     23  2.300                                                                 
     1     -4.2150896     23  2.300                                                                 
     2     -7.0750295     23  2.300                                                                 
     3     -1.3605826     23  2.300                                                                 
  local pseudopotential read in
  partial core-charges read in
  partial kinetic energy density read in
  atomic valenz-charges read in
  non local Contribution for L=           0  read in
    real space projection operators read in
  non local Contribution for L=           0  read in
    real space projection operators read in
  non local Contribution for L=           1  read in
    real space projection operators read in
  non local Contribution for L=           1  read in
    real space projection operators read in
  non local Contribution for L=           2  read in
    real space projection operators read in
    PAW grid and wavefunctions read in
 
   number of l-projection  operators is LMAX  =           5
   number of lm-projection operators is LMMAX =          13
 
 -----------------------------------------------------------------------------
|                                                                             |
|               ----> ADVICE to this user running VASP <----                  |
|                                                                             |
|     You have a (more or less) 'large supercell' and for larger cells it     |
|     might be more efficient to use real-space projection operators.         |
|     Therefore, try LREAL= Auto in the INCAR file.                           |
|     Mind: For very accurate calculation, you might also keep the            |
|     reciprocal projection scheme (i.e. LREAL=.FALSE.).                      |
|                                                                             |
 -----------------------------------------------------------------------------

  PAW_PBE Ag 02Apr2005                  :
 energy of atom  1       EATOM=-1037.2675
 kinetic energy error for atom=    0.0686 (will be added to EATOM!!)
  PAW_PBE Bi 08Apr2002                  :
 energy of atom  2       EATOM= -150.8133
 kinetic energy error for atom=    0.0004 (will be added to EATOM!!)
  PAW_PBE I 08Apr2002                   :
 energy of atom  3       EATOM= -315.8678
 kinetic energy error for atom=    0.0044 (will be added to EATOM!!)
 
 
 POSCAR: Generation Seed Number
  positions in direct lattice
  velocities in cartesian coordinates
 exchange correlation table for  LEXCH =        8
   RHO(1)=    0.500       N(1)  =     2000
   RHO(2)=  100.500       N(2)  =     4000
 


--------------------------------------------------------------------------------------------------------


 ion  position               nearest neighbor table
   1  0.988  0.996  0.023-  21 2.94  33 2.99  27 3.07  25 3.12  17 3.19  34 3.55
   2  0.505  0.511  0.977-  31 2.94  40 2.99  23 3.07  19 3.12  29 3.18  39 3.55
   3  0.748  0.753  0.005-  21 3.02  31 3.03  27 3.07  23 3.08  47 3.22  48 3.34
   4  0.976  0.225  0.250-  26 2.96  25 2.96  33 2.97  45 2.97
   5  0.502  0.997  0.500-  22 3.02  32 3.02  18 3.07  30 3.08  38 3.26  37 3.27
   6  0.276  0.525  0.750-  20 2.96  19 2.96  40 2.96  44 2.97
   7  0.745  0.240  0.477-  22 2.94  45 2.99  30 3.07  26 3.14  24 3.15  46 3.55
   8  0.260  0.755  0.523-  32 2.94  44 2.99  18 3.07  28 3.15  20 3.15  43 3.56
   9  0.248  0.252  1.000-  19 3.07  25 3.07  42 3.14  41 3.14  17 3.18  29 3.18
  10  0.002  0.497  0.500-  20 3.07  26 3.07  36 3.14  35 3.14  28 3.18  24 3.19
  11  0.001  0.752  0.754-  27 3.03  44 3.06  34 3.13  36 3.14  28 3.20  48 3.20
  12  0.249  0.999  0.253-  18 3.03  33 3.05  43 3.13  41 3.14  17 3.19  37 3.20
  13  0.750  0.999  0.750-  48 3.11  38 3.11  21 3.11  22 3.11  34 3.14  46 3.15
  14  0.748  0.498  0.246-  23 3.03  45 3.05  39 3.13  35 3.14  24 3.20  47 3.21
  15  0.500  0.750  0.250-  31 3.11  37 3.11  32 3.11  47 3.12  43 3.14  39 3.14
  16  0.501  0.251  0.746-  30 3.03  40 3.06  46 3.12  42 3.15  29 3.19  38 3.20
  17  0.238  0.002  0.002-   9 3.18   1 3.19  12 3.19
  18  0.261  0.995  0.492-  12 3.03   5 3.07   8 3.07
  19  0.259  0.493  0.980-   6 2.96   9 3.07   2 3.12
  20  0.243  0.508  0.520-   6 2.96  10 3.07   8 3.15
  21  0.759  0.990  0.994-   1 2.94   3 3.02  13 3.11
  22  0.740  0.010  0.505-   7 2.94   5 3.02  13 3.11
  23  0.744  0.511  0.008-  14 3.03   2 3.07   3 3.08
  24  0.752  0.487  0.497-   7 3.15  10 3.19  14 3.20
  25  0.007  0.240  0.020-   4 2.96   9 3.07   1 3.12
  26  0.991  0.257  0.480-   4 2.96  10 3.07   7 3.14
  27  0.989  0.756  0.992-  11 3.03   3 3.07   1 3.07
  28  0.013  0.748  0.502-   8 3.15  10 3.18  11 3.20
  29  0.498  0.262  0.998-   2 3.18   9 3.18  16 3.19
  30  0.505  0.239  0.508-  16 3.03   7 3.07   5 3.08
  31  0.510  0.741  0.006-   2 2.94   3 3.03  15 3.11
  32  0.489  0.760  0.494-   8 2.94   5 3.02  15 3.11
  33  0.008  0.994  0.257-   4 2.97   1 2.99  12 3.05
  34  0.997  0.997  0.743-  11 3.13  13 3.14   1 3.55
  35  0.995  0.509  0.253-  10 3.14  14 3.14
  36  0.990  0.505  0.747-  10 3.14  11 3.14
  37  0.500  0.995  0.243-  15 3.11  12 3.20   5 3.27
  38  0.505  0.999  0.757-  13 3.11  16 3.20   5 3.26
  39  0.503  0.503  0.256-  14 3.13  15 3.14   2 3.55
  40  0.506  0.492  0.743-   6 2.96   2 2.99  16 3.06
  41  0.259  0.246  0.247-   9 3.14  12 3.14
  42  0.254  0.241  0.753-   9 3.14  16 3.15
  43  0.253  0.753  0.243-  12 3.13  15 3.14   8 3.56
  44  0.242  0.756  0.758-   6 2.97   8 2.99  11 3.06
  45  0.745  0.258  0.242-   4 2.97   7 2.99  14 3.05
  46  0.747  0.247  0.757-  16 3.12  13 3.15   7 3.55
  47  0.745  0.750  0.258-  15 3.12  14 3.21   3 3.22
  48  0.750  0.755  0.742-  13 3.11  11 3.20   3 3.34
 
 -----------------------------------------------------------------------------
|                                                                             |
|           W    W    AA    RRRRR   N    N  II  N    N   GGGG   !!!           |
|           W    W   A  A   R    R  NN   N  II  NN   N  G    G  !!!           |
|           W    W  A    A  R    R  N N  N  II  N N  N  G       !!!           |
|           W WW W  AAAAAA  RRRRR   N  N N  II  N  N N  G  GGG   !            |
|           WW  WW  A    A  R   R   N   NN  II  N   NN  G    G                |
|           W    W  A    A  R    R  N    N  II  N    N   GGGG   !!!           |
|                                                                             |
|     The determination of the symmetry of your systems shows a strong        |
|     dependence on the tolerance parameter SYMPREC. This is often the        |
|     result of "noise" in the structural parameters (lattice vectors         |
|     and/or ionic positions). Set NWRITE=3 for more details.                 |
|                                                                             |
 -----------------------------------------------------------------------------

  LATTYP: Found a base centered monoclinic cell.
 ALAT       =    59.6050704485
 B/A-ratio  =     0.3014886400
 C/A-ratio  =     0.6396096334
 COS(beta)  =    -0.9949342825
  
  Lattice vectors:
  
 A1 = ( -12.7065459595,  12.7086523853,  25.4157358216)
 A2 = ( -12.7068669345,  25.4154402528,  12.7087501261)
 A3 = (  12.7056200051, -25.4164262681, -25.4167294871)


Analysis of symmetry for initial positions (statically):
=====================================================================
 Subroutine PRICEL returns:
 Original cell was already a primitive cell.
 

 Routine SETGRP: Setting up the symmetry group for a 
 base centered monoclinic supercell.


 Subroutine GETGRP returns: Found  1 space group operations
 (whereof  1 operations were pure point group operations)
 out of a pool of  4 trial point group operations.


The static configuration has the point symmetry C_1 .


Analysis of symmetry for dynamics (positions and initial velocities):
=====================================================================
 Subroutine PRICEL returns:
 Original cell was already a primitive cell.
 

 Routine SETGRP: Setting up the symmetry group for a 
 base centered monoclinic supercell.


 Subroutine GETGRP returns: Found  1 space group operations
 (whereof  1 operations were pure point group operations)
 out of a pool of  4 trial point group operations.


The dynamic configuration has the point symmetry C_1 .


 Subroutine INISYM returns: Found  1 space group operations
 (whereof  1 operations are pure point group operations),
 and found     1 'primitive' translations


----------------------------------------------------------------------------------------

                                     Primitive cell                                     

  volume of cell :    2052.5340

  direct lattice vectors                    reciprocal lattice vectors
    12.709965773  0.001093528  0.001216566     0.078678419 -0.000005732 -0.000007720
     0.000925954 12.707773883  0.000993666    -0.000006770  0.078691990 -0.000006105
     0.001246929  0.000986015 12.707979361    -0.000007532 -0.000006153  0.078690718

  length of vectors
    12.709965878 12.707773955 12.707979460     0.078678420  0.078691990  0.078690718

  position of ions in fractional coordinates (direct lattice)
     0.988254381  0.995942226  0.022968837
     0.504562854  0.511070383  0.976865462
     0.747563482  0.753226369  0.004599612
     0.975941155  0.224984572  0.250339850
     0.502192764  0.997465009  0.500121321
     0.275723849  0.524682985  0.749827233
     0.744594299  0.240042130  0.477085753
     0.259624432  0.755449186  0.523314767
     0.248116298  0.252005230  0.999827777
     0.002449097  0.497372798  0.500165873
     0.001229154  0.751632188  0.753772993
     0.248614923  0.998846959  0.253345788
     0.749551165  0.999469365  0.749732186
     0.748454346  0.498109722  0.246290384
     0.499704512  0.750355157  0.250008138
     0.501301766  0.251184303  0.746400967
     0.238052877  0.001915801  0.002301245
     0.260825500  0.995071904  0.491749443
     0.259423595  0.492674952  0.980119731
     0.242838881  0.508208135  0.520041884
     0.758871509  0.990334234  0.994215310
     0.739659387  0.010256862  0.505313713
     0.743943551  0.510928890  0.008108667
     0.752070849  0.487079112  0.497461824
     0.007460677  0.240388158  0.019716372
     0.991129537  0.256847385  0.480453718
     0.988722439  0.756309507  0.992022758
     0.013075599  0.747742936  0.502479312
     0.498205119  0.262015382  0.997558830
     0.505320823  0.239296412  0.508052803
     0.509787103  0.740626434  0.005655879
     0.489146246  0.759879542  0.494421610
     0.008359505  0.993777404  0.257261202
     0.996674321  0.997323678  0.743377967
     0.995496586  0.508991959  0.253467725
     0.990243562  0.504617211  0.746647286
     0.500427057  0.995028790  0.242855557
     0.504872141  0.999375383  0.757024287
     0.502794521  0.503126471  0.256367564
     0.506440850  0.491553744  0.742619833
     0.258720686  0.245760922  0.246546085
     0.254144703  0.240839455  0.753442753
     0.252954367  0.753021299  0.242913807
     0.241694026  0.755555747  0.757755909
     0.744628240  0.258057886  0.242260739
     0.746712331  0.246866275  0.756712790
     0.744788619  0.750283248  0.257615350
     0.749890389  0.755135012  0.742017170

  ion indices of the primitive-cell ions
   primitive index   ion index
                 1           1
                 2           2
                 3           3
                 4           4
                 5           5
                 6           6
                 7           7
                 8           8
                 9           9
                10          10
                11          11
                12          12
                13          13
                14          14
                15          15
                16          16
                17          17
                18          18
                19          19
                20          20
                21          21
                22          22
                23          23
                24          24
                25          25
                26          26
                27          27
                28          28
                29          29
                30          30
                31          31
                32          32
                33          33
                34          34
                35          35
                36          36
                37          37
                38          38
                39          39
                40          40
                41          41
                42          42
                43          43
                44          44
                45          45
                46          46
                47          47
                48          48

----------------------------------------------------------------------------------------

 
 
 KPOINTS: agbii                                   

Automatic generation of k-mesh.
Space group operators:
 irot       det(A)        alpha          n_x          n_y          n_z        tau_x        tau_y        tau_z
    1     1.000000     0.000000     1.000000     0.000000     0.000000     0.000000     0.000000     0.000000
 TETIRR: Found    192 inequivalent tetrahedra from      384
 
 Subroutine IBZKPT returns following result:
 ===========================================
 
 Found     36 irreducible k-points:
 
 Following reciprocal coordinates:
            Coordinates               Weight
  0.000000  0.000000  0.000000      1.000000
  0.250000 -0.000000  0.000000      2.000000
  0.500000 -0.000000  0.000000      1.000000
 -0.000000  0.250000  0.000000      2.000000
  0.000000 -0.000000 -0.250000      2.000000
  0.250000  0.250000 -0.000000      2.000000
 -0.250000  0.000000 -0.250000      2.000000
  0.500000  0.250000 -0.000000      2.000000
  0.500000 -0.000000 -0.250000      2.000000
 -0.250000  0.250000  0.000000      2.000000
  0.250000 -0.000000 -0.250000      2.000000
 -0.000000  0.500000 -0.000000      1.000000
 -0.000000 -0.000000  0.500000      1.000000
  0.250000  0.500000  0.000000      2.000000
 -0.250000  0.000000  0.500000      2.000000
  0.500000  0.500000  0.000000      1.000000
  0.500000  0.000000  0.500000      1.000000
 -0.000000  0.250000  0.250000      2.000000
  0.250000  0.250000  0.250000      2.000000
  0.500000  0.250000  0.250000      2.000000
 -0.250000  0.250000  0.250000      2.000000
 -0.000000  0.500000  0.250000      2.000000
 -0.000000 -0.250000  0.500000      2.000000
  0.250000  0.500000  0.250000      2.000000
 -0.250000 -0.250000  0.500000      2.000000
  0.500000  0.500000  0.250000      2.000000
  0.500000 -0.250000  0.500000      2.000000
 -0.250000  0.500000  0.250000      2.000000
  0.250000 -0.250000  0.500000      2.000000
 -0.000000 -0.250000  0.250000      2.000000
  0.250000 -0.250000  0.250000      2.000000
 -0.250000 -0.250000  0.250000      2.000000
  0.500000 -0.250000  0.250000      2.000000
 -0.000000  0.500000  0.500000      1.000000
  0.250000  0.500000  0.500000      2.000000
  0.500000  0.500000  0.500000      1.000000
 
 Following cartesian coordinates:
            Coordinates               Weight
  0.000000  0.000000  0.000000      1.000000
  0.019670 -0.000001 -0.000002      2.000000
  0.039339 -0.000003 -0.000004      1.000000
 -0.000002  0.019673 -0.000002      2.000000
  0.000002  0.000002 -0.019673      2.000000
  0.019668  0.019672 -0.000003      2.000000
 -0.019668  0.000003 -0.019671      2.000000
  0.039338  0.019670 -0.000005      2.000000
  0.039341 -0.000001 -0.019677      2.000000
 -0.019671  0.019674  0.000000      2.000000
  0.019671  0.000000 -0.019675      2.000000
 -0.000003  0.039346 -0.000003      1.000000
 -0.000004 -0.000003  0.039345      1.000000
  0.019666  0.039345 -0.000005      2.000000
 -0.019673 -0.000002  0.039347      2.000000
  0.039336  0.039343 -0.000007      1.000000
  0.039335 -0.000006  0.039341      1.000000
 -0.000004  0.019671  0.019671      2.000000
  0.019666  0.019670  0.019669      2.000000
  0.039336  0.019669  0.019667      2.000000
 -0.019673  0.019673  0.019673      2.000000
 -0.000005  0.039344  0.019670      2.000000
 -0.000002 -0.019676  0.039347      2.000000
  0.019664  0.039343  0.019668      2.000000
 -0.019672 -0.019675  0.039349      2.000000
  0.039334  0.039342  0.019666      2.000000
  0.039337 -0.019679  0.039343      2.000000
 -0.019675  0.039346  0.019672      2.000000
  0.019668 -0.019678  0.039345      2.000000
 -0.000000 -0.019675  0.019674      2.000000
  0.019669 -0.019676  0.019672      2.000000
 -0.019670 -0.019673  0.019676      2.000000
  0.039339 -0.019677  0.019670      2.000000
 -0.000007  0.039343  0.039342      1.000000
  0.019662  0.039341  0.039340      2.000000
  0.039332  0.039340  0.039338      1.000000
 


--------------------------------------------------------------------------------------------------------




 Dimension of arrays:
   k-points           NKPTS =     36   k-points in BZ     NKDIM =     36   number of bands    NBANDS=    211
   number of dos      NEDOS =   3000   number of ions     NIONS =     48
   non local maximal  LDIM  =      6   non local SUM 2l+1 LMDIM =     18
   total plane-waves  NPLWV = 125000
   max r-space proj   IRMAX =      1   max aug-charges    IRDMAX=   6000
   dimension x,y,z NGX =    50 NGY =   50 NGZ =   50
   dimension x,y,z NGXF=   100 NGYF=  100 NGZF=  100
   support grid    NGXF=   100 NGYF=  100 NGZF=  100
   ions per type =               8   8  32
   NGX,Y,Z   is equivalent  to a cutoff of   6.54,  6.54,  6.54 a.u.
   NGXF,Y,Z  is equivalent  to a cutoff of  13.08, 13.08, 13.08 a.u.

 SYSTEM =  unknown system                          
 POSCAR =  Generation Seed Number                  

 Startparameter for this run:
   NWRITE =      2    write-flag & timer
   PREC   = normal    normal or accurate (medium, high low for compatibility)
   ISTART =      1    job   : 0-new  1-cont  2-samecut
   ICHARG =      1    charge: 1-file 2-atom 10-const
   ISPIN  =      1    spin polarized calculation?
   LNONCOLLINEAR =      F non collinear calculations
   LSORBIT =      F    spin-orbit coupling
   INIWAV =      1    electr: 0-lowe 1-rand  2-diag
   LASPH  =      F    aspherical Exc in radial PAW
   METAGGA=      F    non-selfconsistent MetaGGA calc.

 Electronic Relaxation 1
   ENCUT  =  250.0 eV  18.37 Ry    4.29 a.u.  16.39 16.38 16.38*2*pi/ulx,y,z
   ENINI  =  250.0     initial cutoff
   ENAUG  =  412.5 eV  augmentation charge cutoff
   NELM   =     60;   NELMIN=  2; NELMDL=  0     # of ELM steps 
   EDIFF  = 0.1E-05   stopping-criterion for ELM
   LREAL  =      F    real-space projection
   NLSPLINE    = F    spline interpolate recip. space projectors
   LCOMPAT=      F    compatible to vasp.4.4
   GGA_COMPAT  = T    GGA compatible to vasp.4.4-vasp.4.6
   LMAXPAW     = -100 max onsite density
   LMAXMIX     =    4 max onsite mixed and CHGCAR
   VOSKOWN=      0    Vosko Wilk Nusair interpolation
   ROPT   =    0.00000   0.00000   0.00000
 Ionic relaxation
   EDIFFG = -.1E-01   stopping-criterion for IOM
   NSW    =      0    number of steps for IOM
   NBLOCK =      1;   KBLOCK =      1    inner block; outer block 
   IBRION =     -1    ionic relax: 0-MD 1-quasi-New 2-CG
   NFREE  =      0    steps in history (QN), initial steepest desc. (CG)
   ISIF   =     -1    stress and relaxation
   IWAVPR =     10    prediction:  0-non 1-charg 2-wave 3-comb
   ISYM   =      2    0-nonsym 1-usesym 2-fastsym
   LCORR  =      T    Harris-Foulkes like correction to forces

   POTIM  = 0.5000    time-step for ionic-motion
   TEIN   =    0.0    initial temperature
   TEBEG  =    0.0;   TEEND  =   0.0 temperature during run
   SMASS  =  -3.00    Nose mass-parameter (am)
   estimated Nose-frequenzy (Omega)   =  0.10E-29 period in steps = 0.13E+47 mass=  -0.369E-26a.u.
   SCALEE = 1.0000    scale energy and forces
   NPACO  =    256;   APACO  = 16.0  distance and # of slots for P.C.
   PSTRESS=    0.0 pullay stress

  Mass of Ions in am
   POMASS = 107.87208.98126.90
  Ionic Valenz
   ZVAL   =  11.00  5.00  7.00
  Atomic Wigner-Seitz radii
   RWIGS  =  -1.00 -1.00 -1.00
  virtual crystal weights 
   VCA    =   1.00  1.00  1.00
   NELECT =     352.0000    total number of electrons
   NUPDOWN=      -1.0000    fix difference up-down

 DOS related values:
   EMIN   =  10.00;   EMAX   =-10.00  energy-range for DOS
   EFERMI =   0.00
   ISMEAR =    -5;   SIGMA  =   0.20  broadening in eV -4-tet -1-fermi 0-gaus

 Electronic relaxation 2 (details)
   IALGO  =     38    algorithm
   LDIAG  =      T    sub-space diagonalisation (order eigenvalues)
   LSUBROT=      F    optimize rotation matrix (better conditioning)
   TURBO    =      0    0=normal 1=particle mesh
   IRESTART =      0    0=no restart 2=restart with 2 vectors
   NREBOOT  =      0    no. of reboots
   NMIN     =      0    reboot dimension
   EREF     =   0.00    reference energy to select bands
   IMIX   =      4    mixing-type and parameters
     AMIX     =   0.40;   BMIX     =  1.00
     AMIX_MAG =   1.60;   BMIX_MAG =  1.00
     AMIN     =   0.10
     WC   =   100.;   INIMIX=   1;  MIXPRE=   1;  MAXMIX= -45

 Intra band minimization:
   WEIMIN = 0.0000     energy-eigenvalue tresh-hold
   EBREAK =  0.12E-08  absolut break condition
   DEPER  =   0.30     relativ break condition  

   TIME   =   0.40     timestep for ELM

  volume/ion in A,a.u.               =      42.76       288.57
  Fermi-wavevector in a.u.,A,eV,Ry     =   0.909548  1.718796 11.255793  0.827277
  Thomas-Fermi vector in A             =   2.033605
 
 Write flags
   LWAVE        =      T    write WAVECAR
   LDOWNSAMPLE  =      F    k-point downsampling of WAVECAR
   LCHARG       =      T    write CHGCAR
   LVTOT        =      F    write LOCPOT, total local potential
   LVHAR        =      F    write LOCPOT, Hartree potential only
   LELF         =      F    write electronic localiz. function (ELF)
   LORBIT       =     10    0 simple, 1 ext, 2 COOP (PROOUT), +10 PAW based schemes


 Dipole corrections
   LMONO  =      F    monopole corrections only (constant potential shift)
   LDIPOL =      F    correct potential (dipole corrections)
   IDIPOL =      0    1-x, 2-y, 3-z, 4-all directions 
   EPSILON=  1.0000000 bulk dielectric constant

 Exchange correlation treatment:
   GGA     =    --    GGA type
   LEXCH   =     8    internal setting for exchange type
   VOSKOWN=      0    Vosko Wilk Nusair interpolation
   LHFCALC =     F    Hartree Fock is set to
   LHFONE  =     F    Hartree Fock one center treatment
   AEXX    =    0.0000 exact exchange contribution

 Linear response parameters
   LEPSILON=     F    determine dielectric tensor
   LRPA    =     F    only Hartree local field effects (RPA)
   LNABLA  =     F    use nabla operator in PAW spheres
   LVEL    =     F    velocity operator in full k-point grid
   LINTERFAST=   F  fast interpolation
   KINTER  =     0    interpolate to denser k-point grid
   CSHIFT  =0.1000    complex shift for real part using Kramers Kronig
   OMEGAMAX=  -1.0    maximum frequency
   DEG_THRESHOLD= 0.2000000E-02 threshold for treating states as degnerate
   RTIME   =   -0.100 relaxation time in fs
  (WPLASMAI=    0.000 imaginary part of plasma frequency in eV, 0.658/RTIME)
   DFIELD  = 0.0000000 0.0000000 0.0000000 field for delta impulse in time
 
 Orbital magnetization related:
   ORBITALMAG=     F  switch on orbital magnetization
   LCHIMAG   =     F  perturbation theory with respect to B field
   DQ        =  0.001000  dq finite difference perturbation B field
   LLRAUG    =     F  two centre corrections for induced B field



--------------------------------------------------------------------------------------------------------


 Static calculation
 charge density and potential will be updated during run
 non-spin polarized calculation
 Variant of blocked Davidson
 Davidson routine will perform the subspace rotation
 perform sub-space diagonalisation
    after iterative eigenvector-optimisation
 modified Broyden-mixing scheme, WC =      100.0
 initial mixing is a Kerker type mixing with AMIX =  0.4000 and BMIX =      1.0000
 Hartree-type preconditioning will be used
 using additional bands           35
 reciprocal scheme for non local part
 use partial core corrections
 calculate Harris-corrections to forces 
   (improved forces if not selfconsistent)
 use gradient corrections 
 use of overlap-Matrix (Vanderbilt PP)
 Fermi weights with tetrahedron method with Bloechl corrections


--------------------------------------------------------------------------------------------------------


  energy-cutoff  :      250.00
  volume of cell :     2052.53
      direct lattice vectors                 reciprocal lattice vectors
    12.709965773  0.001093528  0.001216566     0.078678419 -0.000005732 -0.000007720
     0.000925954 12.707773883  0.000993666    -0.000006770  0.078691990 -0.000006105
     0.001246929  0.000986015 12.707979361    -0.000007532 -0.000006153  0.078690718

  length of vectors
    12.709965878 12.707773955 12.707979460     0.078678420  0.078691990  0.078690718


 
 old parameters found on file WAVECAR:
  energy-cutoff  :      250.00
  volume of cell :     2052.53
      direct lattice vectors                 reciprocal lattice vectors
    12.709965773  0.001093528  0.001216566     0.078678419 -0.000005732 -0.000007720
     0.000925954 12.707773883  0.000993666    -0.000006770  0.078691990 -0.000006105
     0.001246929  0.000986015 12.707979361    -0.000007532 -0.000006153  0.078690718

  length of vectors

 
 k-points in units of 2pi/SCALE and weight: agbii                                   
   0.00000000  0.00000000  0.00000000       0.016
   0.01966960 -0.00000143 -0.00000193       0.031
   0.03933921 -0.00000287 -0.00000386       0.016
  -0.00000169  0.01967300 -0.00000153       0.031
   0.00000188  0.00000154 -0.01967268       0.031
   0.01966791  0.01967156 -0.00000346       0.031
  -0.01966772  0.00000297 -0.01967075       0.031
   0.03933752  0.01967013 -0.00000539       0.031
   0.03934109 -0.00000133 -0.01967654       0.031
  -0.01967130  0.01967443  0.00000040       0.031
   0.01967149  0.00000011 -0.01967461       0.031
  -0.00000338  0.03934599 -0.00000305       0.016
  -0.00000377 -0.00000308  0.03934536       0.016
   0.01966622  0.03934456 -0.00000498       0.031
  -0.01967337 -0.00000164  0.03934729       0.031
   0.03933582  0.03934313 -0.00000691       0.016
   0.03933544 -0.00000594  0.03934150       0.016
  -0.00000358  0.01967146  0.01967115       0.031
   0.01966603  0.01967003  0.01966922       0.031
   0.03933563  0.01966859  0.01966729       0.031
  -0.01967318  0.01967289  0.01967308       0.031
  -0.00000527  0.03934446  0.01966963       0.031
  -0.00000207 -0.01967607  0.03934689       0.031
   0.01966434  0.03934302  0.01966770       0.031
  -0.01967168 -0.01967464  0.03934881       0.031
   0.03933394  0.03934159  0.01966577       0.031
   0.03933714 -0.01967894  0.03934303       0.031
  -0.01967487  0.03934589  0.01967156       0.031
   0.01966753 -0.01967751  0.03934496       0.031
  -0.00000019 -0.01967454  0.01967421       0.031
   0.01966941 -0.01967597  0.01967228       0.031
  -0.01966980 -0.01967310  0.01967614       0.031
   0.03933902 -0.01967740  0.01967035       0.031
  -0.00000715  0.03934292  0.03934231       0.016
   0.01966245  0.03934149  0.03934038       0.031
   0.03933206  0.03934005  0.03933845       0.016
 
 k-points in reciprocal lattice and weights: agbii                                   
   0.00000000  0.00000000  0.00000000       0.016
   0.25000000 -0.00000000  0.00000000       0.031
   0.50000000 -0.00000000  0.00000000       0.016
  -0.00000000  0.25000000  0.00000000       0.031
   0.00000000 -0.00000000 -0.25000000       0.031
   0.25000000  0.25000000 -0.00000000       0.031
  -0.25000000  0.00000000 -0.25000000       0.031
   0.50000000  0.25000000 -0.00000000       0.031
   0.50000000 -0.00000000 -0.25000000       0.031
  -0.25000000  0.25000000  0.00000000       0.031
   0.25000000 -0.00000000 -0.25000000       0.031
  -0.00000000  0.50000000 -0.00000000       0.016
  -0.00000000 -0.00000000  0.50000000       0.016
   0.25000000  0.50000000  0.00000000       0.031
  -0.25000000  0.00000000  0.50000000       0.031
   0.50000000  0.50000000  0.00000000       0.016
   0.50000000  0.00000000  0.50000000       0.016
  -0.00000000  0.25000000  0.25000000       0.031
   0.25000000  0.25000000  0.25000000       0.031
   0.50000000  0.25000000  0.25000000       0.031
  -0.25000000  0.25000000  0.25000000       0.031
  -0.00000000  0.50000000  0.25000000       0.031
  -0.00000000 -0.25000000  0.50000000       0.031
   0.25000000  0.50000000  0.25000000       0.031
  -0.25000000 -0.25000000  0.50000000       0.031
   0.50000000  0.50000000  0.25000000       0.031
   0.50000000 -0.25000000  0.50000000       0.031
  -0.25000000  0.50000000  0.25000000       0.031
   0.25000000 -0.25000000  0.50000000       0.031
  -0.00000000 -0.25000000  0.25000000       0.031
   0.25000000 -0.25000000  0.25000000       0.031
  -0.25000000 -0.25000000  0.25000000       0.031
   0.50000000 -0.25000000  0.25000000       0.031
  -0.00000000  0.50000000  0.50000000       0.016
   0.25000000  0.50000000  0.50000000       0.031
   0.50000000  0.50000000  0.50000000       0.016
 
 position of ions in fractional coordinates (direct lattice) 
   0.98825438  0.99594223  0.02296884
   0.50456285  0.51107038  0.97686546
   0.74756348  0.75322637  0.00459961
   0.97594115  0.22498457  0.25033985
   0.50219276  0.99746501  0.50012132
   0.27572385  0.52468299  0.74982723
   0.74459430  0.24004213  0.47708575
   0.25962443  0.75544919  0.52331477
   0.24811630  0.25200523  0.99982778
   0.00244910  0.49737280  0.50016587
   0.00122915  0.75163219  0.75377299
   0.24861492  0.99884696  0.25334579
   0.74955117  0.99946937  0.74973219
   0.74845435  0.49810972  0.24629038
   0.49970451  0.75035516  0.25000814
   0.50130177  0.25118430  0.74640097
   0.23805288  0.00191580  0.00230125
   0.26082550  0.99507190  0.49174944
   0.25942360  0.49267495  0.98011973
   0.24283888  0.50820814  0.52004188
   0.75887151  0.99033423  0.99421531
   0.73965939  0.01025686  0.50531371
   0.74394355  0.51092889  0.00810867
   0.75207085  0.48707911  0.49746182
   0.00746068  0.24038816  0.01971637
   0.99112954  0.25684738  0.48045372
   0.98872244  0.75630951  0.99202276
   0.01307560  0.74774294  0.50247931
   0.49820512  0.26201538  0.99755883
   0.50532082  0.23929641  0.50805280
   0.50978710  0.74062643  0.00565588
   0.48914625  0.75987954  0.49442161
   0.00835950  0.99377740  0.25726120
   0.99667432  0.99732368  0.74337797
   0.99549659  0.50899196  0.25346773
   0.99024356  0.50461721  0.74664729
   0.50042706  0.99502879  0.24285556
   0.50487214  0.99937538  0.75702429
   0.50279452  0.50312647  0.25636756
   0.50644085  0.49155374  0.74261983
   0.25872069  0.24576092  0.24654608
   0.25414470  0.24083946  0.75344275
   0.25295437  0.75302130  0.24291381
   0.24169403  0.75555575  0.75775591
   0.74462824  0.25805789  0.24226074
   0.74671233  0.24686627  0.75671279
   0.74478862  0.75028325  0.25761535
   0.74989039  0.75513501  0.74201717
 
 position of ions in cartesian coordinates  (Angst):
  12.56163019 12.65731194  0.29407942
   6.41466791  6.49608183 12.41510779
   9.50220946  9.57265239  0.06010969
  12.40469915  2.86036713  3.18272451
   6.38440007 12.67660207  6.35713353
   3.50586149  6.66859359  9.52964580
   9.46458521  3.05168576  6.06394027
   3.30116969  9.60087734  6.65133977
   3.15502972  3.20368265 12.70634301
   0.03221215  6.32099691  6.35659479
   0.01725838  9.55231646  9.57968001
   3.16112795 12.69364297  3.22080802
   9.52862998 12.70258960  9.52948616
   9.51359745  6.33092701  3.13125862
   6.35223379  9.53613662  3.17845178
   6.37269158  3.19327748  9.48610755
   3.02564856  0.02460816  0.02953569
   3.31661775 12.64591884  6.25044785
   3.29894335  6.26205198 12.45614647
   3.08759290  6.45897239  6.60948195
   9.64738762 12.58675368 12.63637492
   9.40168508  0.13164897  6.42242627
   9.45598028  6.49359033  0.10445752
   9.55986606  6.19100414  6.32313353
   0.09507212  3.05482596  0.25080319
  12.59805941  3.26551605  6.10705693
  12.56856565  9.61306955 12.60855910
   0.16750934  9.50265790  6.38625564
   6.33365651  3.33116064 12.67782348
   6.42346544  3.04197823  6.45717707
   6.48006946  9.41227630  0.07323092
   6.21835217  9.65739980  6.28444976
   0.10749000 12.62896134  3.27026770
  12.66954692 12.67558666  9.44903539
  12.65351489  6.46949325  3.22277948
  12.58736005  6.41438048  9.49008442
   6.36163495 12.64538756  3.08780093
   6.41877696 12.70113492  9.62185627
   6.39128669  6.39442004  3.25902534
   6.43822702  6.24783988  9.43830207
   3.28886605  3.12360025  3.13366151
   3.23133298  3.06155416  9.57528345
   3.21604151  9.56974052  3.08799963
   3.07356727  9.60244304  9.63059125
   9.46474048  3.28039441  3.07980678
   9.49186032  3.13868348  9.61744424
   9.46725381  9.53549832  3.27542217
   9.53270564  9.59763665  9.43120153
 


--------------------------------------------------------------------------------------------------------


 k-point   1 :   0.0000 0.0000 0.0000  plane waves:   18349
 k-point   2 :   0.2500-0.0000 0.0000  plane waves:   18465
 k-point   3 :   0.5000-0.0000 0.0000  plane waves:   18464
 k-point   4 :  -0.0000 0.2500 0.0000  plane waves:   18465
 k-point   5 :   0.0000-0.0000-0.2500  plane waves:   18465
 k-point   6 :   0.2500 0.2500-0.0000  plane waves:   18429
 k-point   7 :  -0.2500 0.0000-0.2500  plane waves:   18429
 k-point   8 :   0.5000 0.2500-0.0000  plane waves:   18418
 k-point   9 :   0.5000-0.0000-0.2500  plane waves:   18418
 k-point  10 :  -0.2500 0.2500 0.0000  plane waves:   18429
 k-point  11 :   0.2500-0.0000-0.2500  plane waves:   18429
 k-point  12 :  -0.0000 0.5000-0.0000  plane waves:   18464
 k-point  13 :  -0.0000-0.0000 0.5000  plane waves:   18464
 k-point  14 :   0.2500 0.5000 0.0000  plane waves:   18418
 k-point  15 :  -0.2500 0.0000 0.5000  plane waves:   18418
 k-point  16 :   0.5000 0.5000 0.0000  plane waves:   18412
 k-point  17 :   0.5000 0.0000 0.5000  plane waves:   18412
 k-point  18 :  -0.0000 0.2500 0.2500  plane waves:   18429
 k-point  19 :   0.2500 0.2500 0.2500  plane waves:   18430
 k-point  20 :   0.5000 0.2500 0.2500  plane waves:   18437
 k-point  21 :  -0.2500 0.2500 0.2500  plane waves:   18430
 k-point  22 :  -0.0000 0.5000 0.2500  plane waves:   18418
 k-point  23 :  -0.0000-0.2500 0.5000  plane waves:   18418
 k-point  24 :   0.2500 0.5000 0.2500  plane waves:   18436
 k-point  25 :  -0.2500-0.2500 0.5000  plane waves:   18436
 k-point  26 :   0.5000 0.5000 0.2500  plane waves:   18432
 k-point  27 :   0.5000-0.2500 0.5000  plane waves:   18432
 k-point  28 :  -0.2500 0.5000 0.2500  plane waves:   18437
 k-point  29 :   0.2500-0.2500 0.5000  plane waves:   18437
 k-point  30 :  -0.0000-0.2500 0.2500  plane waves:   18429
 k-point  31 :   0.2500-0.2500 0.2500  plane waves:   18430
 k-point  32 :  -0.2500-0.2500 0.2500  plane waves:   18430
 k-point  33 :   0.5000-0.2500 0.2500  plane waves:   18438
 k-point  34 :  -0.0000 0.5000 0.5000  plane waves:   18430
 k-point  35 :   0.2500 0.5000 0.5000  plane waves:   18432
 k-point  36 :   0.5000 0.5000 0.5000  plane waves:   18336

 maximum and minimum number of plane-waves per node :     18465    18336

 maximum number of plane-waves:     18465
 maximum index in each direction: 
   IXMAX=   16   IYMAX=   16   IZMAX=   16
   IXMIN=  -16   IYMIN=  -16   IZMIN=  -16


 serial   3D FFT for wavefunctions
 parallel 3D FFT for charge:
    minimum data exchange during FFTs selected (reduces bandwidth)


 total amount of memory used by VASP MPI-rank0  2761676. kBytes
=======================================================================

   base      :      30000. kBytes
   nonl-proj :     301348. kBytes
   fftplans  :      34720. kBytes
   grid      :      70000. kBytes
   one-center:        746. kBytes
   wavefun   :    2324862. kBytes
 
     INWAV:  cpu time    4.5008: real time    6.5786
 Broyden mixing: mesh for mixing (old mesh)
   NGX = 33   NGY = 33   NGZ = 33
  (NGX  =100   NGY  =100   NGZ  =100)
  gives a total of  35937 points

 initial charge density was supplied:
 number of electron     352.0000311 magnetization 
 keeping initial charge density in first step


--------------------------------------------------------------------------------------------------------


 Maximum index for augmentation-charges         5630 (set IRDMAX)


--------------------------------------------------------------------------------------------------------


 First call to EWALD:  gamma=   0.139
 Maximum number of real-space cells 3x 3x 3
 Maximum number of reciprocal cells 3x 3x 3

    FEWALD:  cpu time    0.0026: real time    0.0026


--------------------------------------- Iteration      1(   1)  ---------------------------------------


    POTLOK:  cpu time    0.5839: real time    0.5959
    SETDIJ:  cpu time    0.0271: real time    0.0271
     EDDAV:  cpu time   59.3172: real time   59.3162
 BZINTS: Fermi energy:    2.094211;  352.000000 electrons
         Band energy:-0.747121E+03;  BLOECHL correction:    0.000000
       DOS:  cpu time    0.0538: real time    0.0538
    CHARGE:  cpu time    1.2232: real time    1.2232
    MIXING:  cpu time    0.0250: real time    0.0250
    --------------------------------------------
      LOOP:  cpu time   61.2302: real time   61.2413

 eigenvalue-minimisations  : 10448
 total energy-change (2. order) :-0.1199666E+03  (-0.2793783E-06)
 number of electron     352.0000311 magnetization 
 augmentation part      -23.1240180 magnetization 

 Broyden mixing:
  rms(total) = 0.68354E-03    rms(broyden)= 0.68351E-03
  rms(prec ) = 0.79144E-03
  weight for this iteration     100.00

 Free energy of the ion-electron system (eV)
  ---------------------------------------------------
  alpha Z        PSCENC =       226.88947189
  Ewald energy   TEWEN  =    -13911.17414775
  -Hartree energ DENC   =     -6050.50233910
  -exchange      EXHF   =         0.00000000
  -V(xc)+E(xc)   XCENC  =     -1392.26621331
  PAW double counting   =     22650.92613274   -20508.44214820
  entropy T*S    EENTRO =         0.00000000
  eigenvalues    EBANDS =      -747.12108958
  atomic energy  EATOM  =     19611.72375700
  Solvation  Ediel_sol  =         0.00000000
  ---------------------------------------------------
  free energy    TOTEN  =      -119.96657630 eV

  energy without entropy =     -119.96657630  energy(sigma->0) =     -119.96657630


--------------------------------------------------------------------------------------------------------




--------------------------------------- Iteration      1(   2)  ---------------------------------------


    POTLOK:  cpu time    0.5678: real time    0.5680
    SETDIJ:  cpu time    0.0487: real time    0.0487
     EDDAV:  cpu time   51.1123: real time   51.1112
 BZINTS: Fermi energy:    2.094353;  352.000000 electrons
         Band energy:-0.747117E+03;  BLOECHL correction:    0.000000
       DOS:  cpu time    0.0538: real time    0.0538
    --------------------------------------------
      LOOP:  cpu time   51.7825: real time   51.7815

 eigenvalue-minimisations  :  8216
 total energy-change (2. order) :-0.1264925E-07  (-0.1150646E-06)
 number of electron     352.0000311 magnetization 
 augmentation part      -23.1240180 magnetization 

 Free energy of the ion-electron system (eV)
  ---------------------------------------------------
  alpha Z        PSCENC =       226.88947189
  Ewald energy   TEWEN  =    -13911.17414775
  -Hartree energ DENC   =     -6050.50561986
  -exchange      EXHF   =         0.00000000
  -V(xc)+E(xc)   XCENC  =     -1392.26570772
  PAW double counting   =     22650.49062668   -20508.00747792
  entropy T*S    EENTRO =         0.00000000
  eigenvalues    EBANDS =      -747.11747864
  atomic energy  EATOM  =     19611.72375700
  Solvation  Ediel_sol  =         0.00000000
  ---------------------------------------------------
  free energy    TOTEN  =      -119.96657632 eV

  energy without entropy =     -119.96657632  energy(sigma->0) =     -119.96657632


--------------------------------------------------------------------------------------------------------




 average (electrostatic) potential at core
  the test charge radii are     1.1249  1.4024  1.1875
  (the norm of the test charge is              1.0000)
       1 -75.0295       2 -75.0276       3 -74.9726       4 -75.1529       5 -74.9688
       6 -75.1527       7 -75.0251       8 -75.0258       9 -65.4406      10 -65.4422
      11 -65.4950      12 -65.4977      13 -65.4676      14 -65.4989      15 -65.4739
      16 -65.4958      17 -93.1445      18 -93.0440      19 -93.0585      20 -93.0527
      21 -92.9751      22 -92.9692      23 -93.0476      24 -93.1541      25 -93.0610
      26 -93.0560      27 -93.0539      28 -93.1563      29 -93.1483      30 -93.0447
      31 -92.9709      32 -92.9725      33 -93.1972      34 -93.3045      35 -93.2913
      36 -93.2890      37 -93.2871      38 -93.2862      39 -93.3051      40 -93.1967
      41 -93.2976      42 -93.2929      43 -93.3093      44 -93.1877      45 -93.1984
      46 -93.2997      47 -93.2971      48 -93.2702
 
 
 
 E-fermi :   2.0944     XC(G=0):  -7.8213     alpha+bet : -7.7983


 k-point     1 :       0.0000    0.0000    0.0000
  band No.  band energies     occupation 
      1     -10.8154      2.00000
      2     -10.6841      2.00000
      3     -10.6387      2.00000
      4     -10.5041      2.00000
      5     -10.4521      2.00000
      6     -10.2263      2.00000
      7     -10.1930      2.00000
      8     -10.0137      2.00000
      9      -9.8605      2.00000
     10      -9.8516      2.00000
     11      -9.8361      2.00000
     12      -9.8192      2.00000
     13      -9.8083      2.00000
     14      -9.7779      2.00000
     15      -9.7760      2.00000
     16      -9.7078      2.00000
     17      -9.6980      2.00000
     18      -9.6786      2.00000
     19      -9.6782      2.00000
     20      -9.6746      2.00000
     21      -9.6507      2.00000
     22      -9.6287      2.00000
     23      -9.6218      2.00000
     24      -9.5944      2.00000
     25      -9.5834      2.00000
     26      -9.5755      2.00000
     27      -9.5576      2.00000
     28      -9.5309      2.00000
     29      -9.5236      2.00000
     30      -9.5179      2.00000
     31      -9.5114      2.00000
     32      -9.4795      2.00000
     33      -8.1868      2.00000
     34      -8.0882      2.00000
     35      -8.0772      2.00000
     36      -7.8482      2.00000
     37      -7.8227      2.00000
     38      -7.6154      2.00000
     39      -7.5985      2.00000
     40      -7.5968      2.00000
     41      -1.7924      2.00000
     42      -1.7339      2.00000
     43      -1.6849      2.00000
     44      -1.6768      2.00000
     45      -1.6258      2.00000
     46      -1.5581      2.00000
     47      -1.4976      2.00000
     48      -1.4435      2.00000
     49      -1.4403      2.00000
     50      -1.4057      2.00000
     51      -1.4018      2.00000
     52      -1.3634      2.00000
     53      -1.3269      2.00000
     54      -1.2917      2.00000
     55      -1.2841      2.00000
     56      -1.2483      2.00000
     57      -1.2029      2.00000
     58      -1.1974      2.00000
     59      -1.1262      2.00000
     60      -1.0782      2.00000
     61      -1.0730      2.00000
     62      -1.0331      2.00000
     63      -0.9961      2.00000
     64      -0.9886      2.00000
     65      -0.9821      2.00000
     66      -0.9697      2.00000
     67      -0.9546      2.00000
     68      -0.9522      2.00000
     69      -0.9289      2.00000
     70      -0.8937      2.00000
     71      -0.8877      2.00000
     72      -0.8826      2.00000
     73      -0.8494      2.00000
     74      -0.8215      2.00000
     75      -0.8175      2.00000
     76      -0.7871      2.00000
     77      -0.7817      2.00000
     78      -0.7732      2.00000
     79      -0.7559      2.00000
     80      -0.7069      2.00000
     81      -0.6750      2.00000
     82      -0.6644      2.00000
     83      -0.6261      2.00000
     84      -0.6138      2.00000
     85      -0.6022      2.00000
     86      -0.5841      2.00000
     87      -0.5508      2.00000
     88      -0.5226      2.00000
     89      -0.5111      2.00000
     90      -0.4768      2.00000
     91      -0.4486      2.00000
     92      -0.4386      2.00000
     93      -0.4244      2.00000
     94      -0.3820      2.00000
     95      -0.3691      2.00000
     96      -0.3407      2.00000
     97      -0.3228      2.00000
     98      -0.3168      2.00000
     99      -0.2929      2.00000
    100      -0.2867      2.00000
    101      -0.2556      2.00000
    102      -0.2356      2.00000
    103      -0.2308      2.00000
    104      -0.1984      2.00000
    105      -0.1759      2.00000
    106      -0.1699      2.00000
    107      -0.1439      2.00000
    108      -0.1215      2.00000
    109      -0.0942      2.00000
    110      -0.0827      2.00000
    111      -0.0295      2.00000
    112      -0.0104      2.00000
    113       0.1073      2.00000
    114       0.1556      2.00000
    115       0.1974      2.00000
    116       0.2057      2.00000
    117       0.2105      2.00000
    118       0.2384      2.00000
    119       0.2635      2.00000
    120       0.2743      2.00000
    121       0.2797      2.00000
    122       0.3192      2.00000
    123       0.3850      2.00000
    124       0.4243      2.00000
    125       0.4302      2.00000
    126       0.4425      2.00000
    127       0.5123      2.00000
    128       0.5451      2.00000
    129       0.5505      2.00000
    130       0.5539      2.00000
    131       0.5671      2.00000
    132       0.5782      2.00000
    133       0.6163      2.00000
    134       0.6696      2.00000
    135       0.7227      2.00000
    136       0.7387      2.00000
    137       0.7441      2.00000
    138       0.7458      2.00000
    139       0.7576      2.00000
    140       0.8099      2.00000
    141       0.8107      2.00000
    142       0.8261      2.00000
    143       0.8500      2.00000
    144       0.8686      2.00000
    145       0.8769      2.00000
    146       0.9178      2.00000
    147       0.9681      2.00000
    148       0.9962      2.00000
    149       1.0206      2.00000
    150       1.0565      2.00000
    151       1.0941      2.00000
    152       1.1202      2.00000
    153       1.1324      2.00000
    154       1.1827      2.00000
    155       1.1973      2.00000
    156       1.2026      2.00000
    157       1.2262      2.00000
    158       1.2371      2.00000
    159       1.2738      2.00000
    160       1.3421      2.00000
    161       1.3884      2.00000
    162       1.4319      2.00000
    163       1.4977      2.00000
    164       1.5265      2.00000
    165       1.5733      2.00000
    166       1.5879      2.00000
    167       1.6107      2.00000
    168       1.6379      2.00000
    169       1.7931      2.00000
    170       1.7970      2.00000
    171       1.9130      2.00000
    172       1.9284      2.00000
    173       2.0370      2.00000
    174       2.0504      2.00000
    175       2.0642      2.00000
    176       2.0942      2.00000
    177       3.8728      0.00000
    178       4.0357      0.00000
    179       4.0428      0.00000
    180       4.1566      0.00000
    181       4.1937      0.00000
    182       4.3764      0.00000
    183       4.3792      0.00000
    184       4.4242      0.00000
    185       4.4517      0.00000
    186       4.4701      0.00000
    187       4.5461      0.00000
    188       4.5632      0.00000
    189       4.5888      0.00000
    190       4.5921      0.00000
    191       4.6341      0.00000
    192       4.6420      0.00000
    193       4.6704      0.00000
    194       4.7330      0.00000
    195       4.7606      0.00000
    196       4.7669      0.00000
    197       4.8338      0.00000
    198       4.8634      0.00000
    199       4.8693      0.00000
    200       4.9830      0.00000
    201       5.1091      0.00000
    202       5.3026      0.00000
    203       5.6105      0.00000
    204       5.7499      0.00000
    205       5.9562      0.00000
    206       5.9769      0.00000
    207       5.9891      0.00000
    208       6.0228      0.00000
    209       7.1845      0.00000
    210       7.2892      0.00000
    211       7.3015      0.00000

 k-point     2 :       0.2500   -0.0000    0.0000
  band No.  band energies     occupation 
      1     -10.8002      2.00000
      2     -10.6900      2.00000
      3     -10.6596      2.00000
      4     -10.5014      2.00000
      5     -10.4484      2.00000
      6     -10.2250      2.00000
      7     -10.1819      2.00000
      8     -10.0244      2.00000
      9      -9.8646      2.00000
     10      -9.8597      2.00000
     11      -9.8427      2.00000
     12      -9.8198      2.00000
     13      -9.8109      2.00000
     14      -9.7677      2.00000
     15      -9.7567      2.00000
     16      -9.7121      2.00000
     17      -9.6981      2.00000
     18      -9.6850      2.00000
     19      -9.6663      2.00000
     20      -9.6632      2.00000
     21      -9.6575      2.00000
     22      -9.6286      2.00000
     23      -9.6169      2.00000
     24      -9.6016      2.00000
     25      -9.5794      2.00000
     26      -9.5779      2.00000
     27      -9.5526      2.00000
     28      -9.5355      2.00000
     29      -9.5259      2.00000
     30      -9.5192      2.00000
     31      -9.5099      2.00000
     32      -9.4855      2.00000
     33      -8.1921      2.00000
     34      -8.0858      2.00000
     35      -8.0761      2.00000
     36      -7.8473      2.00000
     37      -7.8231      2.00000
     38      -7.6461      2.00000
     39      -7.5965      2.00000
     40      -7.5682      2.00000
     41      -1.7701      2.00000
     42      -1.7170      2.00000
     43      -1.6858      2.00000
     44      -1.6619      2.00000
     45      -1.6198      2.00000
     46      -1.5803      2.00000
     47      -1.5286      2.00000
     48      -1.5138      2.00000
     49      -1.4613      2.00000
     50      -1.4180      2.00000
     51      -1.3647      2.00000
     52      -1.3526      2.00000
     53      -1.3183      2.00000
     54      -1.2865      2.00000
     55      -1.2666      2.00000
     56      -1.2410      2.00000
     57      -1.1946      2.00000
     58      -1.1710      2.00000
     59      -1.1468      2.00000
     60      -1.0985      2.00000
     61      -1.0874      2.00000
     62      -1.0530      2.00000
     63      -1.0184      2.00000
     64      -1.0033      2.00000
     65      -0.9855      2.00000
     66      -0.9678      2.00000
     67      -0.9480      2.00000
     68      -0.9347      2.00000
     69      -0.9148      2.00000
     70      -0.9032      2.00000
     71      -0.8833      2.00000
     72      -0.8722      2.00000
     73      -0.8519      2.00000
     74      -0.8416      2.00000
     75      -0.8045      2.00000
     76      -0.7843      2.00000
     77      -0.7816      2.00000
     78      -0.7771      2.00000
     79      -0.7340      2.00000
     80      -0.7226      2.00000
     81      -0.6758      2.00000
     82      -0.6525      2.00000
     83      -0.6294      2.00000
     84      -0.6172      2.00000
     85      -0.5996      2.00000
     86      -0.5581      2.00000
     87      -0.5512      2.00000
     88      -0.5253      2.00000
     89      -0.4786      2.00000
     90      -0.4623      2.00000
     91      -0.4472      2.00000
     92      -0.4363      2.00000
     93      -0.4080      2.00000
     94      -0.3829      2.00000
     95      -0.3658      2.00000
     96      -0.3551      2.00000
     97      -0.3406      2.00000
     98      -0.3312      2.00000
     99      -0.3106      2.00000
    100      -0.2829      2.00000
    101      -0.2706      2.00000
    102      -0.2523      2.00000
    103      -0.1925      2.00000
    104      -0.1890      2.00000
    105      -0.1783      2.00000
    106      -0.1458      2.00000
    107      -0.1266      2.00000
    108      -0.1251      2.00000
    109      -0.1144      2.00000
    110      -0.0969      2.00000
    111      -0.0661      2.00000
    112      -0.0161      2.00000
    113       0.1109      2.00000
    114       0.1386      2.00000
    115       0.1641      2.00000
    116       0.1771      2.00000
    117       0.2090      2.00000
    118       0.2574      2.00000
    119       0.2748      2.00000
    120       0.2941      2.00000
    121       0.3120      2.00000
    122       0.3664      2.00000
    123       0.3811      2.00000
    124       0.3846      2.00000
    125       0.4462      2.00000
    126       0.4775      2.00000
    127       0.4982      2.00000
    128       0.5360      2.00000
    129       0.5553      2.00000
    130       0.5843      2.00000
    131       0.5960      2.00000
    132       0.6210      2.00000
    133       0.6295      2.00000
    134       0.6573      2.00000
    135       0.6788      2.00000
    136       0.7179      2.00000
    137       0.7303      2.00000
    138       0.7478      2.00000
    139       0.7848      2.00000
    140       0.7929      2.00000
    141       0.8051      2.00000
    142       0.8446      2.00000
    143       0.8493      2.00000
    144       0.8640      2.00000
    145       0.8931      2.00000
    146       0.9255      2.00000
    147       1.0028      2.00000
    148       1.0196      2.00000
    149       1.0234      2.00000
    150       1.0393      2.00000
    151       1.0504      2.00000
    152       1.1093      2.00000
    153       1.1587      2.00000
    154       1.1807      2.00000
    155       1.1834      2.00000
    156       1.1893      2.00000
    157       1.2214      2.00000
    158       1.2439      2.00000
    159       1.2782      2.00000
    160       1.3315      2.00000
    161       1.3859      2.00000
    162       1.4440      2.00000
    163       1.5059      2.00000
    164       1.5204      2.00000
    165       1.5652      2.00000
    166       1.5899      2.00000
    167       1.6371      2.00000
    168       1.6599      2.00000
    169       1.7867      2.00000
    170       1.8010      2.00000
    171       1.8895      2.00000
    172       1.9145      2.00000
    173       2.0072      2.00000
    174       2.0124      2.00000
    175       2.0433      2.00000
    176       2.0541      2.00000
    177       3.9334      0.00000
    178       4.0248      0.00000
    179       4.0654      0.00000
    180       4.1759      0.00000
    181       4.1984      0.00000
    182       4.3340      0.00000
    183       4.3549      0.00000
    184       4.4256      0.00000
    185       4.4573      0.00000
    186       4.4815      0.00000
    187       4.4993      0.00000
    188       4.5373      0.00000
    189       4.6095      0.00000
    190       4.6155      0.00000
    191       4.6310      0.00000
    192       4.6552      0.00000
    193       4.6804      0.00000
    194       4.6873      0.00000
    195       4.7283      0.00000
    196       4.7938      0.00000
    197       4.8147      0.00000
    198       4.8609      0.00000
    199       4.8907      0.00000
    200       4.9623      0.00000
    201       5.2367      0.00000
    202       5.3875      0.00000
    203       5.6213      0.00000
    204       5.7628      0.00000
    205       5.8515      0.00000
    206       5.8701      0.00000
    207       5.9925      0.00000
    208       6.0059      0.00000
    209       7.2976      0.00000
    210       7.3313      0.00000
    211       7.4004      0.00000

 k-point     3 :       0.5000   -0.0000    0.0000
  band No.  band energies     occupation 
      1     -10.7757      2.00000
      2     -10.7155      2.00000
      3     -10.6685      2.00000
      4     -10.4998      2.00000
      5     -10.4451      2.00000
      6     -10.2253      2.00000
      7     -10.1690      2.00000
      8     -10.0346      2.00000
      9      -9.8684      2.00000
     10      -9.8676      2.00000
     11      -9.8470      2.00000
     12      -9.8208      2.00000
     13      -9.8133      2.00000
     14      -9.7564      2.00000
     15      -9.7389      2.00000
     16      -9.7140      2.00000
     17      -9.7049      2.00000
     18      -9.6804      2.00000
     19      -9.6693      2.00000
     20      -9.6638      2.00000
     21      -9.6406      2.00000
     22      -9.6368      2.00000
     23      -9.6118      2.00000
     24      -9.5921      2.00000
     25      -9.5870      2.00000
     26      -9.5833      2.00000
     27      -9.5493      2.00000
     28      -9.5451      2.00000
     29      -9.5219      2.00000
     30      -9.5192      2.00000
     31      -9.5028      2.00000
     32      -9.4986      2.00000
     33      -8.1973      2.00000
     34      -8.0851      2.00000
     35      -8.0730      2.00000
     36      -7.8471      2.00000
     37      -7.8231      2.00000
     38      -7.6627      2.00000
     39      -7.5939      2.00000
     40      -7.5542      2.00000
     41      -1.7325      2.00000
     42      -1.7128      2.00000
     43      -1.6657      2.00000
     44      -1.6437      2.00000
     45      -1.6301      2.00000
     46      -1.6123      2.00000
     47      -1.5603      2.00000
     48      -1.5404      2.00000
     49      -1.4880      2.00000
     50      -1.4170      2.00000
     51      -1.3892      2.00000
     52      -1.3513      2.00000
     53      -1.2801      2.00000
     54      -1.2781      2.00000
     55      -1.2554      2.00000
     56      -1.2217      2.00000
     57      -1.2099      2.00000
     58      -1.1589      2.00000
     59      -1.1499      2.00000
     60      -1.1288      2.00000
     61      -1.1198      2.00000
     62      -1.0721      2.00000
     63      -1.0149      2.00000
     64      -0.9863      2.00000
     65      -0.9828      2.00000
     66      -0.9613      2.00000
     67      -0.9350      2.00000
     68      -0.9281      2.00000
     69      -0.9123      2.00000
     70      -0.9065      2.00000
     71      -0.8966      2.00000
     72      -0.8714      2.00000
     73      -0.8381      2.00000
     74      -0.8260      2.00000
     75      -0.8118      2.00000
     76      -0.8008      2.00000
     77      -0.7763      2.00000
     78      -0.7743      2.00000
     79      -0.7496      2.00000
     80      -0.7355      2.00000
     81      -0.6657      2.00000
     82      -0.6411      2.00000
     83      -0.6273      2.00000
     84      -0.6032      2.00000
     85      -0.6017      2.00000
     86      -0.5613      2.00000
     87      -0.5399      2.00000
     88      -0.4854      2.00000
     89      -0.4791      2.00000
     90      -0.4705      2.00000
     91      -0.4559      2.00000
     92      -0.4383      2.00000
     93      -0.3963      2.00000
     94      -0.3887      2.00000
     95      -0.3724      2.00000
     96      -0.3514      2.00000
     97      -0.3248      2.00000
     98      -0.3155      2.00000
     99      -0.3087      2.00000
    100      -0.3007      2.00000
    101      -0.2777      2.00000
    102      -0.2716      2.00000
    103      -0.1990      2.00000
    104      -0.1746      2.00000
    105      -0.1595      2.00000
    106      -0.1445      2.00000
    107      -0.1334      2.00000
    108      -0.1296      2.00000
    109      -0.1123      2.00000
    110      -0.0854      2.00000
    111      -0.0845      2.00000
    112      -0.0237      2.00000
    113       0.0718      2.00000
    114       0.0809      2.00000
    115       0.1287      2.00000
    116       0.1728      2.00000
    117       0.2052      2.00000
    118       0.2397      2.00000
    119       0.2912      2.00000
    120       0.3183      2.00000
    121       0.3445      2.00000
    122       0.4158      2.00000
    123       0.4310      2.00000
    124       0.4494      2.00000
    125       0.4784      2.00000
    126       0.4905      2.00000
    127       0.5188      2.00000
    128       0.5427      2.00000
    129       0.5567      2.00000
    130       0.5713      2.00000
    131       0.5817      2.00000
    132       0.6033      2.00000
    133       0.6082      2.00000
    134       0.6679      2.00000
    135       0.6726      2.00000
    136       0.6783      2.00000
    137       0.7405      2.00000
    138       0.7541      2.00000
    139       0.7760      2.00000
    140       0.7886      2.00000
    141       0.7999      2.00000
    142       0.8271      2.00000
    143       0.8485      2.00000
    144       0.9035      2.00000
    145       0.9073      2.00000
    146       0.9474      2.00000
    147       0.9643      2.00000
    148       1.0010      2.00000
    149       1.0341      2.00000
    150       1.0660      2.00000
    151       1.0955      2.00000
    152       1.0975      2.00000
    153       1.1207      2.00000
    154       1.1231      2.00000
    155       1.1825      2.00000
    156       1.1951      2.00000
    157       1.2216      2.00000
    158       1.2687      2.00000
    159       1.2841      2.00000
    160       1.3107      2.00000
    161       1.4221      2.00000
    162       1.4451      2.00000
    163       1.4873      2.00000
    164       1.5075      2.00000
    165       1.6177      2.00000
    166       1.6243      2.00000
    167       1.6424      2.00000
[...]
    143       0.8821      2.00000
    144       0.8854      2.00000
    145       0.9518      2.00000
    146       0.9534      2.00000
    147       1.0461      2.00000
    148       1.0487      2.00000
    149       1.0703      2.00000
    150       1.0731      2.00000
    151       1.1071      2.00000
    152       1.1089      2.00000
    153       1.1293      2.00000
    154       1.1328      2.00000
    155       1.1965      2.00000
    156       1.1975      2.00000
    157       1.2418      2.00000
    158       1.2442      2.00000
    159       1.2986      2.00000
    160       1.2998      2.00000
    161       1.4832      2.00000
    162       1.4845      2.00000
    163       1.6109      2.00000
    164       1.6167      2.00000
    165       1.6251      2.00000
    166       1.6267      2.00000
    167       1.7146      2.00000
    168       1.7193      2.00000
    169       1.7881      2.00000
    170       1.7883      2.00000
    171       1.8699      2.00000
    172       1.8759      2.00000
    173       1.9010      2.00000
    174       1.9065      2.00000
    175       2.0183      2.00000
    176       2.0224      2.00000
    177       3.8412      0.00000
    178       3.8466      0.00000
    179       4.0239      0.00000
    180       4.0276      0.00000
    181       4.1345      0.00000
    182       4.1357      0.00000
    183       4.2860      0.00000
    184       4.2890      0.00000
    185       4.3556      0.00000
    186       4.3580      0.00000
    187       4.4584      0.00000
    188       4.4610      0.00000
    189       4.6357      0.00000
    190       4.6387      0.00000
    191       4.7114      0.00000
    192       4.7125      0.00000
    193       4.8026      0.00000
    194       4.8059      0.00000
    195       4.8529      0.00000
    196       4.8551      0.00000
    197       4.9190      0.00000
    198       4.9230      0.00000
    199       5.0480      0.00000
    200       5.0494      0.00000
    201       5.5921      0.00000
    202       5.5945      0.00000
    203       5.6323      0.00000
    204       5.6333      0.00000
    205       5.6649      0.00000
    206       5.6713      0.00000
    207       5.8219      0.00000
    208       5.8237      0.00000
    209       7.3518      0.00000
    210       7.3559      0.00000
    211       7.5249      0.00000

 k-point    36 :       0.5000    0.5000    0.5000
  band No.  band energies     occupation 
      1     -10.7401      2.00000
      2     -10.7368      2.00000
      3     -10.6112      2.00000
      4     -10.6101      2.00000
      5     -10.3554      2.00000
      6     -10.3540      2.00000
      7     -10.0892      2.00000
      8     -10.0855      2.00000
      9      -9.8783      2.00000
     10      -9.8731      2.00000
     11      -9.7885      2.00000
     12      -9.7818      2.00000
     13      -9.7599      2.00000
     14      -9.7581      2.00000
     15      -9.7199      2.00000
     16      -9.7169      2.00000
     17      -9.6971      2.00000
     18      -9.6938      2.00000
     19      -9.6719      2.00000
     20      -9.6698      2.00000
     21      -9.6658      2.00000
     22      -9.6649      2.00000
     23      -9.6049      2.00000
     24      -9.6039      2.00000
     25      -9.5842      2.00000
     26      -9.5830      2.00000
     27      -9.5551      2.00000
     28      -9.5531      2.00000
     29      -9.5200      2.00000
     30      -9.5190      2.00000
     31      -9.5101      2.00000
     32      -9.5076      2.00000
     33      -8.1639      2.00000
     34      -8.1630      2.00000
     35      -7.9706      2.00000
     36      -7.9699      2.00000
     37      -7.7325      2.00000
     38      -7.7303      2.00000
     39      -7.5563      2.00000
     40      -7.5526      2.00000
     41      -1.7535      2.00000
     42      -1.7496      2.00000
     43      -1.6490      2.00000
     44      -1.6479      2.00000
     45      -1.6033      2.00000
     46      -1.6016      2.00000
     47      -1.5132      2.00000
     48      -1.5098      2.00000
     49      -1.4572      2.00000
     50      -1.4556      2.00000
     51      -1.4309      2.00000
     52      -1.4253      2.00000
     53      -1.3494      2.00000
     54      -1.3476      2.00000
     55      -1.2573      2.00000
     56      -1.2532      2.00000
     57      -1.2392      2.00000
     58      -1.2342      2.00000
     59      -1.1114      2.00000
     60      -1.1092      2.00000
     61      -1.0152      2.00000
     62      -1.0120      2.00000
     63      -0.9810      2.00000
     64      -0.9743      2.00000
     65      -0.9637      2.00000
     66      -0.9631      2.00000
     67      -0.9372      2.00000
     68      -0.9328      2.00000
     69      -0.8861      2.00000
     70      -0.8796      2.00000
     71      -0.8529      2.00000
     72      -0.8489      2.00000
     73      -0.8372      2.00000
     74      -0.8348      2.00000
     75      -0.8105      2.00000
     76      -0.8089      2.00000
     77      -0.8026      2.00000
     78      -0.7953      2.00000
     79      -0.7129      2.00000
     80      -0.7108      2.00000
     81      -0.6648      2.00000
     82      -0.6616      2.00000
     83      -0.5965      2.00000
     84      -0.5923      2.00000
     85      -0.5621      2.00000
     86      -0.5575      2.00000
     87      -0.5201      2.00000
     88      -0.5185      2.00000
     89      -0.4842      2.00000
     90      -0.4836      2.00000
     91      -0.4459      2.00000
     92      -0.4449      2.00000
     93      -0.3717      2.00000
     94      -0.3670      2.00000
     95      -0.3526      2.00000
     96      -0.3495      2.00000
     97      -0.3263      2.00000
     98      -0.3230      2.00000
     99      -0.2810      2.00000
    100      -0.2793      2.00000
    101      -0.2756      2.00000
    102      -0.2742      2.00000
    103      -0.2244      2.00000
    104      -0.2219      2.00000
    105      -0.1795      2.00000
    106      -0.1781      2.00000
    107      -0.1521      2.00000
    108      -0.1489      2.00000
    109      -0.1111      2.00000
    110      -0.1092      2.00000
    111      -0.0507      2.00000
    112      -0.0457      2.00000
    113       0.0638      2.00000
    114       0.0668      2.00000
    115       0.1733      2.00000
    116       0.1765      2.00000
    117       0.2600      2.00000
    118       0.2638      2.00000
    119       0.3152      2.00000
    120       0.3189      2.00000
    121       0.3935      2.00000
    122       0.3946      2.00000
    123       0.3977      2.00000
    124       0.4012      2.00000
    125       0.4468      2.00000
    126       0.4501      2.00000
    127       0.4815      2.00000
    128       0.4853      2.00000
    129       0.5423      2.00000
    130       0.5466      2.00000
    131       0.5801      2.00000
    132       0.5835      2.00000
    133       0.6010      2.00000
    134       0.6072      2.00000
    135       0.6342      2.00000
    136       0.6368      2.00000
    137       0.7018      2.00000
    138       0.7055      2.00000
    139       0.7307      2.00000
    140       0.7332      2.00000
    141       0.7688      2.00000
    142       0.7699      2.00000
    143       0.9079      2.00000
    144       0.9127      2.00000
    145       0.9402      2.00000
    146       0.9422      2.00000
    147       1.0642      2.00000
    148       1.0683      2.00000
    149       1.0845      2.00000
    150       1.0871      2.00000
    151       1.1062      2.00000
    152       1.1092      2.00000
    153       1.1215      2.00000
    154       1.1249      2.00000
    155       1.2067      2.00000
    156       1.2072      2.00000
    157       1.2373      2.00000
    158       1.2398      2.00000
    159       1.3011      2.00000
    160       1.3024      2.00000
    161       1.5165      2.00000
    162       1.5167      2.00000
    163       1.6134      2.00000
    164       1.6187      2.00000
    165       1.6223      2.00000
    166       1.6235      2.00000
    167       1.7305      2.00000
    168       1.7362      2.00000
    169       1.8061      2.00000
    170       1.8077      2.00000
    171       1.8726      2.00000
    172       1.8801      2.00000
    173       1.8966      2.00000
    174       1.9022      2.00000
    175       2.0561      2.00000
    176       2.0607      2.00000
    177       3.7408      0.00000
    178       3.7469      0.00000
    179       3.9461      0.00000
    180       3.9497      0.00000
    181       4.0743      0.00000
    182       4.0762      0.00000
    183       4.2603      0.00000
    184       4.2618      0.00000
    185       4.3496      0.00000
    186       4.3500      0.00000
    187       4.4561      0.00000
    188       4.4584      0.00000
    189       4.6502      0.00000
    190       4.6529      0.00000
    191       4.7357      0.00000
    192       4.7377      0.00000
    193       4.8515      0.00000
    194       4.8552      0.00000
    195       4.8838      0.00000
    196       4.8854      0.00000
    197       4.9884      0.00000
    198       4.9889      0.00000
    199       5.0618      0.00000
    200       5.0661      0.00000
    201       5.5767      0.00000
    202       5.5787      0.00000
    203       5.6039      0.00000
    204       5.6076      0.00000
    205       5.6325      0.00000
    206       5.6403      0.00000
    207       5.8356      0.00000
    208       5.8367      0.00000
    209       7.2700      0.00000
    210       7.2733      0.00000
    211       7.5386      0.00000


--------------------------------------------------------------------------------------------------------


 soft charge-density along one line, spin component           1
         0         1         2         3         4         5         6         7         8         9
 total charge-density along one line
 
 pseudopotential strength for first ion, spin component:           1
 -6.434   0.001   0.000   0.000  -0.000  -6.569   0.001   0.000
  0.001  -6.439  -0.001  -0.000  -0.001   0.001  -6.574  -0.001
  0.000  -0.001  -6.436   0.001   0.001   0.000  -0.001  -6.571
  0.000  -0.000   0.001  -6.442   0.001   0.000  -0.000   0.001
 -0.000  -0.001   0.001   0.001  -6.426  -0.000  -0.001   0.001
 -6.569   0.001   0.000   0.000  -0.000  -6.674   0.001   0.000
  0.001  -6.574  -0.001  -0.000  -0.001   0.001  -6.679  -0.001
  0.000  -0.001  -6.571   0.001   0.001   0.000  -0.001  -6.676
  0.000  -0.000   0.001  -6.577   0.001   0.000  -0.000   0.001
 -0.000  -0.001   0.001   0.001  -6.561  -0.000  -0.001   0.001
  0.000   0.000   0.000   0.001   0.001   0.000   0.000   0.000
  0.001   0.000   0.000   0.001   0.002   0.001   0.000  -0.000
  0.006  -0.006  -0.001   0.000  -0.001   0.006  -0.006  -0.001
  0.000   0.001  -0.008   0.006   0.000   0.000   0.001  -0.008
  0.001   0.000  -0.004  -0.006   0.007   0.001   0.000  -0.004
  0.008  -0.008  -0.001   0.000  -0.002   0.007  -0.007  -0.001
  0.000   0.002  -0.010   0.008   0.000   0.000   0.002  -0.009
  0.001   0.000  -0.005  -0.007   0.008   0.001   0.000  -0.004
 total augmentation occupancy for first ion, spin component:           1
  2.279   0.006  -0.054   0.006  -0.025  -0.300  -0.012   0.055  -0.009   0.021  -0.066   0.014  -0.022   0.004   0.001   0.004
  0.006   2.295  -0.092  -0.003  -0.125  -0.012  -0.297   0.078  -0.001   0.116  -0.060   0.013   0.042   0.011  -0.000  -0.005
 -0.054  -0.092   3.831   0.062  -0.046   0.055   0.078  -1.689  -0.062   0.052   0.177  -0.021   0.002  -0.217  -0.061  -0.000
  0.006  -0.003   0.062   2.294   0.118  -0.009  -0.001  -0.061  -0.318  -0.118  -0.143   0.024   0.001  -0.028   0.066  -0.000
 -0.025  -0.125  -0.046   0.118   4.319   0.021   0.116   0.053  -0.118  -2.145  -0.115   0.023  -0.017   0.012   0.118   0.000
 -0.300  -0.012   0.055  -0.009   0.021   0.303   0.017  -0.055   0.012  -0.017   0.057  -0.014   0.014  -0.003  -0.002  -0.001
 -0.012  -0.297   0.078  -0.001   0.116   0.017   0.284  -0.066   0.004  -0.108   0.054  -0.014  -0.030  -0.011  -0.000   0.002
  0.055   0.078  -1.689  -0.061   0.053  -0.055  -0.066   1.546   0.060  -0.058  -0.157   0.027  -0.000   0.197   0.058  -0.000
 -0.009  -0.001  -0.062  -0.318  -0.118   0.012   0.004   0.060   0.323   0.118   0.130  -0.027  -0.001   0.018  -0.050   0.000
  0.021   0.116   0.052  -0.118  -2.145  -0.017  -0.108  -0.058   0.118   1.974   0.098  -0.020   0.016  -0.010  -0.111  -0.001
 -0.066  -0.060   0.177  -0.143  -0.115   0.057   0.054  -0.157   0.130   0.098   1.438  -0.307  -0.010   0.048  -0.045   0.001
  0.014   0.013  -0.021   0.024   0.023  -0.014  -0.014   0.027  -0.027  -0.020  -0.307   0.070   0.002  -0.011   0.008  -0.000
 -0.022   0.042   0.002   0.001  -0.017   0.014  -0.030  -0.000  -0.001   0.016  -0.010   0.002   0.089   0.004   0.003  -0.006
  0.004   0.011  -0.217  -0.028   0.012  -0.003  -0.011   0.197   0.018  -0.010   0.048  -0.011   0.004   0.078   0.009  -0.000
  0.001  -0.000  -0.061   0.066   0.118  -0.002  -0.000   0.058  -0.050  -0.111  -0.045   0.008   0.003   0.009   0.101  -0.000
  0.004  -0.005  -0.000  -0.000   0.000  -0.001   0.002  -0.000   0.000  -0.001   0.001  -0.000  -0.006  -0.000  -0.000   0.000
 -0.000   0.000   0.009   0.005  -0.001   0.000   0.001  -0.012  -0.001   0.001  -0.005   0.001  -0.000  -0.005  -0.001   0.000
  0.000  -0.000   0.002  -0.006  -0.003   0.000   0.000  -0.004   0.003   0.007   0.004  -0.001  -0.000  -0.001  -0.007   0.000


------------------------ aborting loop because EDIFF is reached ----------------------------------------


 


 total charge     
 
# of ion       s       p       d       tot
------------------------------------------
    1        0.241   0.151   9.320   9.713
    2        0.241   0.152   9.320   9.713
    3        0.239   0.147   9.323   9.708
    4        0.252   0.158   9.313   9.723
    5        0.239   0.147   9.323   9.709
    6        0.253   0.158   9.312   9.724
    7        0.241   0.151   9.320   9.713
    8        0.241   0.151   9.320   9.713
    9        1.833   1.401   0.135   3.370
   10        1.833   1.401   0.135   3.369
   11        1.834   1.401   0.138   3.373
   12        1.834   1.401   0.138   3.373
   13        1.835   1.398   0.139   3.372
   14        1.834   1.402   0.138   3.374
   15        1.835   1.398   0.139   3.372
   16        1.834   1.401   0.138   3.373
   17        1.517   2.745   0.012   4.275
   18        1.516   2.744   0.015   4.274
   19        1.514   2.743   0.015   4.272
   20        1.514   2.743   0.015   4.272
   21        1.513   2.748   0.016   4.277
   22        1.513   2.748   0.016   4.277
   23        1.516   2.743   0.015   4.274
   24        1.517   2.746   0.013   4.275
   25        1.514   2.743   0.015   4.272
   26        1.514   2.743   0.015   4.272
   27        1.516   2.743   0.015   4.274
   28        1.517   2.745   0.013   4.275
   29        1.517   2.745   0.012   4.275
   30        1.516   2.744   0.015   4.274
   31        1.513   2.748   0.016   4.277
   32        1.513   2.748   0.016   4.276
   33        1.514   2.742   0.017   4.274
   34        1.518   2.742   0.012   4.272
   35        1.518   2.742   0.011   4.271
   36        1.518   2.742   0.011   4.271
   37        1.518   2.742   0.012   4.273
   38        1.518   2.742   0.013   4.273
   39        1.518   2.742   0.012   4.272
   40        1.514   2.742   0.017   4.274
   41        1.518   2.742   0.011   4.271
   42        1.518   2.742   0.011   4.271
   43        1.519   2.742   0.012   4.272
   44        1.514   2.743   0.017   4.274
   45        1.514   2.742   0.017   4.274
   46        1.518   2.742   0.012   4.272
   47        1.518   2.742   0.013   4.273
   48        1.518   2.743   0.012   4.273
--------------------------------------------------
tot         65.136 100.213  76.095 241.444
 


--------------------------------------------------------------------------------------------------------



  FREE ENERGIE OF THE ION-ELECTRON SYSTEM (eV)
  ---------------------------------------------------
  free  energy   TOTEN  =      -119.96657632 eV

  energy  without entropy=     -119.96657632  energy(sigma->0) =     -119.96657632
 


--------------------------------------------------------------------------------------------------------




--------------------------------------------------------------------------------------------------------


 writing wavefunctions
     LOOP+:  cpu time  117.7869: real time  117.9210
    4ORBIT:  cpu time    0.0000: real time    0.0000
 


 total charge     
 
# of ion       s       p       d       tot
------------------------------------------
    1        0.241   0.151   9.320   9.713
    2        0.241   0.152   9.320   9.713
    3        0.239   0.147   9.323   9.708
    4        0.252   0.158   9.313   9.723
    5        0.239   0.147   9.323   9.709
    6        0.253   0.158   9.312   9.724
    7        0.241   0.151   9.320   9.713
    8        0.241   0.151   9.320   9.713
    9        1.833   1.401   0.135   3.370
   10        1.833   1.401   0.135   3.369
   11        1.834   1.401   0.138   3.373
   12        1.834   1.401   0.138   3.373
   13        1.835   1.398   0.139   3.372
   14        1.834   1.402   0.138   3.374
   15        1.835   1.398   0.139   3.372
   16        1.834   1.401   0.138   3.373
   17        1.517   2.745   0.012   4.275
   18        1.516   2.744   0.015   4.274
   19        1.514   2.743   0.015   4.272
   20        1.514   2.743   0.015   4.272
   21        1.513   2.748   0.016   4.277
   22        1.513   2.748   0.016   4.277
   23        1.516   2.743   0.015   4.274
   24        1.517   2.746   0.013   4.275
   25        1.514   2.743   0.015   4.272
   26        1.514   2.743   0.015   4.272
   27        1.516   2.743   0.015   4.274
   28        1.517   2.745   0.013   4.275
   29        1.517   2.745   0.012   4.275
   30        1.516   2.744   0.015   4.274
   31        1.513   2.748   0.016   4.277
   32        1.513   2.748   0.016   4.276
   33        1.514   2.742   0.017   4.274
   34        1.518   2.742   0.012   4.272
   35        1.518   2.742   0.011   4.271
   36        1.518   2.742   0.011   4.271
   37        1.518   2.742   0.012   4.273
   38        1.518   2.742   0.013   4.273
   39        1.518   2.742   0.012   4.272
   40        1.514   2.742   0.017   4.274
   41        1.518   2.742   0.011   4.271
   42        1.518   2.742   0.011   4.271
   43        1.519   2.742   0.012   4.272
   44        1.514   2.743   0.017   4.274
   45        1.514   2.742   0.017   4.274
   46        1.518   2.742   0.012   4.272
   47        1.518   2.742   0.013   4.273
   48        1.518   2.743   0.012   4.273
--------------------------------------------------
tot         65.136 100.213  76.095 241.444
 
 BZINTS: Fermi energy:    2.094353;  352.000000 electrons
         Band energy:-0.747117E+03;  BLOECHL correction:    0.000000

 total amount of memory used by VASP MPI-rank0  2761676. kBytes
=======================================================================

   base      :      30000. kBytes
   nonl-proj :     301348. kBytes
   fftplans  :      34720. kBytes
   grid      :      70000. kBytes
   one-center:        746. kBytes
   wavefun   :    2324862. kBytes
 
  
  
 General timing and accounting informations for this job:
 ========================================================
  
                  Total CPU time used (sec):      157.510
                            User time (sec):      153.037
                          System time (sec):        4.473
                         Elapsed time (sec):      161.077
  
                   Maximum memory used (kb):     4318392.
                   Average memory used (kb):           0.
  
                          Minor page faults:       421828
                          Major page faults:            0
                 Voluntary context switches:         2394
