 vasp.6.1.0 28Jan20 (build Jan 13 2021 21:44:47) complex                        
  
 executed on             LinuxIFC date 2021.09.12  19:38:24
 running on    9 total cores
 distrk:  each k-point on    1 cores,    9 groups
 distr:  one band on NCORE=   1 cores,    1 groups


--------------------------------------------------------------------------------------------------------


 INCAR:
 POTCAR:    PAW_PBE Ag 02Apr2005                  
 POTCAR:    PAW_PBE Bi 08Apr2002                  
 POTCAR:    PAW_PBE I 08Apr2002                   
 -----------------------------------------------------------------------------
|                                                                             |
|           W    W    AA    RRRRR   N    N  II  N    N   GGGG   !!!           |
|           W    W   A  A   R    R  NN   N  II  NN   N  G    G  !!!           |
|           W    W  A    A  R    R  N N  N  II  N N  N  G       !!!           |
|           W WW W  AAAAAA  RRRRR   N  N N  II  N  N N  G  GGG   !            |
|           WW  WW  A    A  R   R   N   NN  II  N   NN  G    G                |
|           W    W  A    A  R    R  N    N  II  N    N   GGGG   !!!           |
|                                                                             |
|     For optimal performance we recommend to set                             |
|       NCORE = 4 - approx SQRT(number of cores).                             |
|     NCORE specifies how many cores store one orbital (NPAR=cpu/NCORE).      |
|     This setting can greatly improve the performance of VASP for DFT.       |
|     The default, NCORE=1 might be grossly inefficient on modern             |
|     multi-core architectures or massively parallel machines. Do your        |
|     own testing!!!!                                                         |
|     Unfortunately you need to use the default for GW and RPA                |
|     calculations (for HF NCORE is supported but not extensively tested      |
|     yet).                                                                   |
|                                                                             |
 -----------------------------------------------------------------------------

 POTCAR:    PAW_PBE Ag 02Apr2005                  
   VRHFIN =Ag : s1 d10                                                                              
   LEXCH  = PE                                                                                      
   EATOM  =  1037.2675 eV,   76.2370 Ry                                                             
                                                                                                    
   TITEL  = PAW_PBE Ag 02Apr2005                                                                    
   LULTRA =        F    use ultrasoft PP ?                                                          
   IUNSCR =        1    unscreen: 0-lin 1-nonlin 2-no                                               
   RPACOR =    2.000    partial core radius                                                         
   POMASS =  107.868; ZVAL   =   11.000    mass and valenz                                          
   RCORE  =    2.500    outmost cutoff radius                                                       
   RWIGS  =    2.840; RWIGS  =    1.503    wigner-seitz radius (au A)                               
   ENMAX  =  249.844; ENMIN  =  187.383 eV                                                          
   ICORE  =        3    local potential                                                             
   LCOR   =        T    correct aug charges                                                         
   LPAW   =        T    paw PP                                                                      
   EAUG   =  412.496                                                                                
   DEXC   =    0.000                                                                                
   RMAX   =    2.560    core radius for proj-oper                                                   
   RAUG   =    1.300    factor for augmentation sphere                                              
   RDEP   =    2.576    radius for radial grids                                                     
   RDEPT  =    2.072    core radius for aug-charge                                                  
                                                                                                    
   Atomic configuration                                                                             
   12 entries                                                                                       
     n  l   j            E        occ.                                                              
     1  0  0.50    -25324.9161   2.0000                                                             
     2  0  0.50     -3728.5341   2.0000                                                             
     2  1  1.50     -3344.0404   6.0000                                                             
     3  0  0.50      -683.5581   2.0000                                                             
     3  1  1.50      -557.3225   6.0000                                                             
     3  2  2.50      -358.3853  10.0000                                                             
     4  0  0.50       -95.0341   2.0000                                                             
     4  1  1.50       -58.5511   6.0000                                                             
     4  2  2.50        -7.4440  10.0000                                                             
     5  0  0.50        -4.4045   1.0000                                                             
     5  1  0.50        -1.3606   0.0000                                                             
     4  3  2.50        -1.3606   0.0000                                                             
   Description                                                                                      
     l       E           TYP  RCUT    TYP  RCUT                                                     
     2     -7.4439781     23  2.400                                                                 
     2     -8.8045607     23  2.400                                                                 
     0     -4.4044681     23  2.400                                                                 
     0      1.9520038     23  2.400                                                                 
     1     -1.3605826     23  2.500                                                                 
     1     27.2116520     23  2.500                                                                 
     3     -4.0817478     23  2.400                                                                 
  local pseudopotential read in
  partial core-charges read in
  partial kinetic energy density read in
  atomic valenz-charges read in
  non local Contribution for L=           2  read in
    real space projection operators read in
  non local Contribution for L=           2  read in
    real space projection operators read in
  non local Contribution for L=           0  read in
    real space projection operators read in
  non local Contribution for L=           0  read in
    real space projection operators read in
  non local Contribution for L=           1  read in
    real space projection operators read in
  non local Contribution for L=           1  read in
    real space projection operators read in
    PAW grid and wavefunctions read in
 
   number of l-projection  operators is LMAX  =           6
   number of lm-projection operators is LMMAX =          18
 
 POTCAR:    PAW_PBE Bi 08Apr2002                  
   VRHFIN =Bi:                                                                                      
   LEXCH  = PE                                                                                      
   EATOM  =   150.8133 eV,   11.0845 Ry                                                             
                                                                                                    
   TITEL  = PAW_PBE Bi 08Apr2002                                                                    
   LULTRA =        F    use ultrasoft PP ?                                                          
   IUNSCR =        1    unscreen: 0-lin 1-nonlin 2-no                                               
   RPACOR =    2.200    partial core radius                                                         
   POMASS =  208.980; ZVAL   =    5.000    mass and valenz                                          
   RCORE  =    3.000    outmost cutoff radius                                                       
   RWIGS  =    3.090; RWIGS  =    1.635    wigner-seitz radius (au A)                               
   ENMAX  =  105.037; ENMIN  =   78.777 eV                                                          
   ICORE  =        3    local potential                                                             
   LCOR   =        T    correct aug charges                                                         
   LPAW   =        T    paw PP                                                                      
   EAUG   =  265.427                                                                                
   DEXC   =    0.000                                                                                
   RMAX   =    3.067    core radius for proj-oper                                                   
   RAUG   =    1.300    factor for augmentation sphere                                              
   RDEP   =    3.012    radius for radial grids                                                     
   RDEPT  =    2.604    core radius for aug-charge                                                  
                                                                                                    
   Atomic configuration                                                                             
   17 entries                                                                                       
     n  l   j            E        occ.                                                              
     1  0  0.50    -90639.6582   2.0000                                                             
     2  0  0.50    -16282.4667   2.0000                                                             
     2  1  1.50    -13922.8287   6.0000                                                             
     3  0  0.50     -3930.4763   2.0000                                                             
     3  1  1.50     -3256.7013   6.0000                                                             
     3  2  2.50     -2581.6169  10.0000                                                             
     4  0  0.50      -902.2614   2.0000                                                             
     4  1  1.50      -681.5915   6.0000                                                             
     4  2  2.50      -429.8249  10.0000                                                             
     4  3  3.50      -152.6004  14.0000                                                             
     5  0  0.50      -157.7156   2.0000                                                             
     5  1  1.50       -95.8054   6.0000                                                             
     5  2  2.50       -27.0806  10.0000                                                             
     6  0  0.50       -14.4732   2.0000                                                             
     6  1  1.50        -4.5702   3.0000                                                             
     6  2  2.50        -2.7212   0.0000                                                             
     5  3  2.50        -2.7212   0.0000                                                             
   Description                                                                                      
     l       E           TYP  RCUT    TYP  RCUT                                                     
     0    -14.4732299     23  3.000                                                                 
     0    -12.2452434     23  3.000                                                                 
     1     -4.5701666     23  3.000                                                                 
     1    -13.6058260     23  3.000                                                                 
     2     -2.7211652     23  3.000                                                                 
     3     -1.3605826      7  3.000                                                                 
  local pseudopotential read in
  partial core-charges read in
  partial kinetic energy density read in
  kinetic energy density of atom read in
  atomic valenz-charges read in
  non local Contribution for L=           0  read in
    real space projection operators read in
  non local Contribution for L=           0  read in
    real space projection operators read in
  non local Contribution for L=           1  read in
    real space projection operators read in
  non local Contribution for L=           1  read in
    real space projection operators read in
  non local Contribution for L=           2  read in
    real space projection operators read in
    PAW grid and wavefunctions read in
 
   number of l-projection  operators is LMAX  =           5
   number of lm-projection operators is LMMAX =          13
 
 POTCAR:    PAW_PBE I 08Apr2002                   
   VRHFIN =I : s2p5                                                                                 
   LEXCH  = PE                                                                                      
   EATOM  =   315.8678 eV,   23.2156 Ry                                                             
                                                                                                    
   TITEL  = PAW_PBE I 08Apr2002                                                                     
   LULTRA =        F    use ultrasoft PP ?                                                          
   IUNSCR =        1    unscreen: 0-lin 1-nonlin 2-no                                               
   RPACOR =    2.200    partial core radius                                                         
   POMASS =  126.904; ZVAL   =    7.000    mass and valenz                                          
   RCORE  =    2.300    outmost cutoff radius                                                       
   RWIGS  =    2.810; RWIGS  =    1.487    wigner-seitz radius (au A)                               
   ENMAX  =  175.647; ENMIN  =  131.735 eV                                                          
   ICORE  =        3    local potential                                                             
   LCOR   =        T    correct aug charges                                                         
   LPAW   =        T    paw PP                                                                      
   EAUG   =  370.139                                                                                
   DEXC   =    0.000                                                                                
   RMAX   =    2.359    core radius for proj-oper                                                   
   RAUG   =    1.300    factor for augmentation sphere                                              
   RDEP   =    2.392    radius for radial grids                                                     
   RDEPT  =    2.170    core radius for aug-charge                                                  
                                                                                                    
   Atomic configuration                                                                             
   13 entries                                                                                       
     n  l   j            E        occ.                                                              
     1  0  0.50    -32976.3739   2.0000                                                             
     2  0  0.50     -5094.5933   2.0000                                                             
     2  1  1.50     -4572.0131   6.0000                                                             
     3  0  0.50     -1028.2813   2.0000                                                             
     3  1  1.50      -859.0250   6.0000                                                             
     3  2  2.50      -605.7620  10.0000                                                             
     4  0  0.50      -180.5540   2.0000                                                             
     4  1  1.50      -127.5306   6.0000                                                             
     4  2  2.50       -50.2720  10.0000                                                             
     5  0  0.50       -17.4058   2.0000                                                             
     5  1  0.50        -7.0851   5.0000                                                             
     5  2  1.50        -7.0750   0.0000                                                             
     4  3  2.50        -7.0750   0.0000                                                             
   Description                                                                                      
     l       E           TYP  RCUT    TYP  RCUT                                                     
     0    -17.4058016     23  2.300                                                                 
     0    -18.7663842     23  2.300                                                                 
     1     -7.0850686     23  2.300                                                                 
     1     -4.2150896     23  2.300                                                                 
     2     -7.0750295     23  2.300                                                                 
     3     -1.3605826     23  2.300                                                                 
  local pseudopotential read in
  partial core-charges read in
  partial kinetic energy density read in
  atomic valenz-charges read in
  non local Contribution for L=           0  read in
    real space projection operators read in
  non local Contribution for L=           0  read in
    real space projection operators read in
  non local Contribution for L=           1  read in
    real space projection operators read in
  non local Contribution for L=           1  read in
    real space projection operators read in
  non local Contribution for L=           2  read in
    real space projection operators read in
    PAW grid and wavefunctions read in
 
   number of l-projection  operators is LMAX  =           5
   number of lm-projection operators is LMMAX =          13
 
 -----------------------------------------------------------------------------
|                                                                             |
|               ----> ADVICE to this user running VASP <----                  |
|                                                                             |
|     You have a (more or less) 'large supercell' and for larger cells it     |
|     might be more efficient to use real-space projection operators.         |
|     Therefore, try LREAL= Auto in the INCAR file.                           |
|     Mind: For very accurate calculation, you might also keep the            |
|     reciprocal projection scheme (i.e. LREAL=.FALSE.).                      |
|                                                                             |
 -----------------------------------------------------------------------------

  PAW_PBE Ag 02Apr2005                  :
 energy of atom  1       EATOM=-1037.2675
 kinetic energy error for atom=    0.0686 (will be added to EATOM!!)
  PAW_PBE Bi 08Apr2002                  :
 energy of atom  2       EATOM= -150.8133
 kinetic energy error for atom=    0.0004 (will be added to EATOM!!)
  PAW_PBE I 08Apr2002                   :
 energy of atom  3       EATOM= -315.8678
 kinetic energy error for atom=    0.0044 (will be added to EATOM!!)
 
 
 POSCAR: Generation Seed Number
  positions in direct lattice
  velocities in cartesian coordinates
 exchange correlation table for  LEXCH =        8
   RHO(1)=    0.500       N(1)  =     2000
   RHO(2)=  100.500       N(2)  =     4000
 


--------------------------------------------------------------------------------------------------------


 ion  position               nearest neighbor table
   1  0.255  0.259  0.024-  19 2.94  41 2.99  29 3.07  17 3.15  25 3.15  42 3.56
   2  0.498  0.502  0.997-  31 3.02  19 3.03  23 3.07  29 3.08  40 3.23  39 3.30
   3  0.740  0.744  0.977-  31 2.94  48 2.99  23 3.07  21 3.14  27 3.15  47 3.56
   4  0.025  0.275  0.251-  26 2.96  25 2.96  35 2.96  41 2.97
   5  0.011  0.505  0.477-  20 2.94  35 2.99  28 3.07  26 3.13  24 3.18  36 3.56
   6  0.496  0.988  0.523-  32 2.94  38 2.99  18 3.07  22 3.12  30 3.18  37 3.56
   7  0.724  0.975  0.750-  22 2.96  21 2.96  38 2.96  48 2.97
   8  0.253  0.747  0.503-  20 3.02  32 3.02  18 3.07  28 3.08  44 3.23  43 3.32
   9  0.997  0.002  0.000-  25 3.07  21 3.07  33 3.14  34 3.14  17 3.18  27 3.19
  10  0.998  0.748  0.746-  28 3.03  48 3.05  36 3.13  34 3.14  27 3.19  44 3.20
  11  0.251  0.001  0.254-  18 3.03  41 3.06  37 3.12  33 3.14  17 3.20  43 3.20
  12  0.751  0.501  0.246-  23 3.03  35 3.06  47 3.12  45 3.14  24 3.20  39 3.20
  13  0.500  0.749  0.250-  39 3.11  43 3.11  31 3.11  32 3.11  47 3.14  37 3.14
  14  0.499  0.248  0.754-  29 3.03  38 3.05  42 3.13  46 3.14  30 3.19  40 3.20
  15  0.250  0.499  0.750-  19 3.11  20 3.11  40 3.12  44 3.12  42 3.14  36 3.14
  16  0.752  0.248  0.500-  26 3.07  22 3.07  45 3.14  46 3.14  24 3.18  30 3.18
  17  0.248  0.013  0.002-   1 3.15   9 3.18  11 3.20
  18  0.256  0.988  0.492-  11 3.03   6 3.07   8 3.07
  19  0.260  0.489  0.994-   1 2.94   2 3.03  15 3.11
  20  0.241  0.510  0.506-   5 2.94   8 3.02  15 3.11
  21  0.757  0.991  0.980-   7 2.96   9 3.07   3 3.14
  22  0.740  0.007  0.519-   7 2.96  16 3.07   6 3.12
  23  0.739  0.505  0.008-  12 3.03   3 3.07   2 3.07
  24  0.762  0.498  0.498-   5 3.18  16 3.18  12 3.20
  25  0.008  0.243  0.021-   4 2.96   9 3.07   1 3.15
  26  0.992  0.259  0.481-   4 2.96  16 3.07   5 3.13
  27  0.987  0.752  0.997-   3 3.15   9 3.19  10 3.19
  28  0.011  0.744  0.508-  10 3.03   5 3.07   8 3.08
  29  0.495  0.260  0.992-  14 3.03   1 3.07   2 3.08
  30  0.502  0.238  0.503-  16 3.18   6 3.18  14 3.19
  31  0.510  0.740  0.005-   3 2.94   2 3.02  13 3.11
  32  0.490  0.759  0.494-   6 2.94   8 3.02  13 3.11
  33  0.004  0.990  0.247-   9 3.14  11 3.14
  34  0.009  0.995  0.753-  10 3.14   9 3.14
  35  0.991  0.506  0.243-   4 2.96   5 2.99  12 3.06
  36  0.003  0.503  0.757-  10 3.13  15 3.14   5 3.56
  37  0.497  0.996  0.243-  11 3.12  13 3.14   6 3.56
  38  0.494  0.008  0.757-   7 2.96   6 2.99  14 3.05
  39  0.499  0.505  0.257-  13 3.11  12 3.20   2 3.30
  40  0.495  0.500  0.743-  15 3.12  14 3.20   2 3.23
  41  0.255  0.241  0.258-   4 2.97   1 2.99  11 3.06
  42  0.253  0.253  0.743-  14 3.13  15 3.14   1 3.56
  43  0.255  0.750  0.242-  13 3.11  11 3.20   8 3.32
  44  0.250  0.745  0.758-  15 3.12  10 3.20   8 3.23
  45  0.741  0.254  0.254-  16 3.14  12 3.14
  46  0.746  0.259  0.747-  16 3.14  14 3.14
  47  0.747  0.746  0.257-  12 3.12  13 3.14   3 3.56
  48  0.758  0.744  0.742-   7 2.97   3 2.99  10 3.05
 
 -----------------------------------------------------------------------------
|                                                                             |
|           W    W    AA    RRRRR   N    N  II  N    N   GGGG   !!!           |
|           W    W   A  A   R    R  NN   N  II  NN   N  G    G  !!!           |
|           W    W  A    A  R    R  N N  N  II  N N  N  G       !!!           |
|           W WW W  AAAAAA  RRRRR   N  N N  II  N  N N  G  GGG   !            |
|           WW  WW  A    A  R   R   N   NN  II  N   NN  G    G                |
|           W    W  A    A  R    R  N    N  II  N    N   GGGG   !!!           |
|                                                                             |
|     The determination of the symmetry of your systems shows a strong        |
|     dependence on the tolerance parameter SYMPREC. This is often the        |
|     result of "noise" in the structural parameters (lattice vectors         |
|     and/or ionic positions). Set NWRITE=3 for more details.                 |
|                                                                             |
 -----------------------------------------------------------------------------

  LATTYP: Found a base centered monoclinic cell.
 ALAT       =    17.9759045250
 B/A-ratio  =     0.9998064193
 C/A-ratio  =     2.1211503261
 COS(beta)  =    -0.9428179717
  
  Lattice vectors:
  
 A1 = (   0.0009374188,  12.7096793027,   0.0012299684)
 A2 = (   0.0008591460,   0.0012305500,  12.7096280271)
 A3 = (  12.7053091817, -25.4207898719, -25.4209486942)


Analysis of symmetry for initial positions (statically):
=====================================================================
 Subroutine PRICEL returns:
 Original cell was already a primitive cell.
 

 Routine SETGRP: Setting up the symmetry group for a 
 base centered monoclinic supercell.


 Subroutine GETGRP returns: Found  1 space group operations
 (whereof  1 operations were pure point group operations)
 out of a pool of  4 trial point group operations.


The static configuration has the point symmetry C_1 .


Analysis of symmetry for dynamics (positions and initial velocities):
=====================================================================
 Subroutine PRICEL returns:
 Original cell was already a primitive cell.
 

 Routine SETGRP: Setting up the symmetry group for a 
 base centered monoclinic supercell.


 Subroutine GETGRP returns: Found  1 space group operations
 (whereof  1 operations were pure point group operations)
 out of a pool of  4 trial point group operations.


The dynamic configuration has the point symmetry C_1 .


 Subroutine INISYM returns: Found  1 space group operations
 (whereof  1 operations are pure point group operations),
 and found     1 'primitive' translations


----------------------------------------------------------------------------------------

                                     Primitive cell                                     

  volume of cell :    2052.9363

  direct lattice vectors                    reciprocal lattice vectors
    12.708902311  0.001029833  0.000767297     0.078685002 -0.000005803 -0.000005318
     0.000937419 12.709679303  0.001229968    -0.000006375  0.078680193 -0.000007617
     0.000859146  0.001230550 12.709628027    -0.000004750 -0.000007614  0.078680510

  length of vectors
    12.708902376 12.709679397 12.709628116     0.078685003  0.078680193  0.078680510

  position of ions in fractional coordinates (direct lattice)
     0.255426496  0.259410312  0.023591308
     0.497607581  0.502323055  0.997374307
     0.740150847  0.744496321  0.976782554
     0.024671840  0.275411159  0.250719486
     0.011022522  0.504537445  0.476852749
     0.495542284  0.988281209  0.523095518
     0.724366339  0.975323425  0.749599153
     0.253019126  0.746765860  0.503283695
     0.997332564  0.002305912  0.000162347
     0.998181564  0.748441247  0.746409576
     0.251312410  0.000915688  0.253653279
     0.751017086  0.500982572  0.246414115
     0.499696420  0.749198927  0.249720206
     0.498646746  0.248250855  0.753539845
     0.249846226  0.499444159  0.750139178
     0.751522313  0.248009360  0.499897570
     0.247708019  0.012742189  0.002465925
     0.255986560  0.988215977  0.491987541
     0.259947064  0.488940605  0.994393768
     0.240533370  0.509539225  0.505681297
     0.756966212  0.991182735  0.979783804
     0.740251897  0.007190709  0.519476567
     0.739144526  0.504963764  0.008017158
     0.761890441  0.497905374  0.497544910
     0.008291227  0.242546641  0.020581335
     0.992277963  0.259180341  0.480568220
     0.986940603  0.751833287  0.997445967
     0.010784947  0.743778747  0.508089347
     0.494896662  0.260314547  0.991913973
     0.501511318  0.237847348  0.502524150
     0.510496028  0.739568690  0.005316552
     0.490151465  0.758836943  0.494189913
     0.004216361  0.990024531  0.246557669
     0.009131573  0.995270124  0.753361750
     0.991460744  0.505991428  0.242645259
     0.003030279  0.502567840  0.756696964
     0.496899469  0.996419881  0.243379441
     0.493595915  0.008048838  0.757410597
     0.499429901  0.504647405  0.257136299
     0.494895393  0.500165895  0.742900055
     0.255415679  0.241487561  0.257815885
     0.252867605  0.252750253  0.743205405
     0.255104318  0.749634155  0.242230091
     0.250048107  0.744578709  0.757756290
     0.740778454  0.253863552  0.253528811
     0.745539556  0.258775426  0.746583722
     0.746892247  0.746477909  0.256777837
     0.757999050  0.744356185  0.742236891

  ion indices of the primitive-cell ions
   primitive index   ion index
                 1           1
                 2           2
                 3           3
                 4           4
                 5           5
                 6           6
                 7           7
                 8           8
                 9           9
                10          10
                11          11
                12          12
                13          13
                14          14
                15          15
                16          16
                17          17
                18          18
                19          19
                20          20
                21          21
                22          22
                23          23
                24          24
                25          25
                26          26
                27          27
                28          28
                29          29
                30          30
                31          31
                32          32
                33          33
                34          34
                35          35
                36          36
                37          37
                38          38
                39          39
                40          40
                41          41
                42          42
                43          43
                44          44
                45          45
                46          46
                47          47
                48          48

----------------------------------------------------------------------------------------

 
 
 KPOINTS: agbii                                   

Automatic generation of k-mesh.
Space group operators:
 irot       det(A)        alpha          n_x          n_y          n_z        tau_x        tau_y        tau_z
    1     1.000000     0.000000     1.000000     0.000000     0.000000     0.000000     0.000000     0.000000
 TETIRR: Found    192 inequivalent tetrahedra from      384
 
 Subroutine IBZKPT returns following result:
 ===========================================
 
 Found     36 irreducible k-points:
 
 Following reciprocal coordinates:
            Coordinates               Weight
  0.000000  0.000000  0.000000      1.000000
  0.250000 -0.000000  0.000000      2.000000
  0.500000 -0.000000  0.000000      1.000000
 -0.000000  0.250000  0.000000      2.000000
  0.000000  0.000000 -0.250000      2.000000
  0.250000  0.250000 -0.000000      2.000000
 -0.250000  0.000000 -0.250000      2.000000
  0.500000  0.250000 -0.000000      2.000000
  0.500000 -0.000000 -0.250000      2.000000
 -0.250000  0.250000  0.000000      2.000000
  0.250000 -0.000000 -0.250000      2.000000
 -0.000000  0.500000 -0.000000      1.000000
 -0.000000 -0.000000  0.500000      1.000000
  0.250000  0.500000  0.000000      2.000000
 -0.250000  0.000000  0.500000      2.000000
  0.500000  0.500000  0.000000      1.000000
  0.500000 -0.000000  0.500000      1.000000
 -0.000000  0.250000  0.250000      2.000000
  0.250000  0.250000  0.250000      2.000000
  0.500000  0.250000  0.250000      2.000000
 -0.250000  0.250000  0.250000      2.000000
 -0.000000  0.500000  0.250000      2.000000
  0.000000 -0.250000  0.500000      2.000000
  0.250000  0.500000  0.250000      2.000000
 -0.250000 -0.250000  0.500000      2.000000
  0.500000  0.500000  0.250000      2.000000
  0.500000 -0.250000  0.500000      2.000000
 -0.250000  0.500000  0.250000      2.000000
  0.250000 -0.250000  0.500000      2.000000
  0.000000 -0.250000  0.250000      2.000000
  0.250000 -0.250000  0.250000      2.000000
 -0.250000 -0.250000  0.250000      2.000000
  0.500000 -0.250000  0.250000      2.000000
 -0.000000  0.500000  0.500000      1.000000
  0.250000  0.500000  0.500000      2.000000
  0.500000  0.500000  0.500000      1.000000
 
 Following cartesian coordinates:
            Coordinates               Weight
  0.000000  0.000000  0.000000      1.000000
  0.019671 -0.000001 -0.000001      2.000000
  0.039343 -0.000003 -0.000003      1.000000
 -0.000002  0.019670 -0.000002      2.000000
  0.000001  0.000002 -0.019670      2.000000
  0.019670  0.019669 -0.000003      2.000000
 -0.019670  0.000003 -0.019669      2.000000
  0.039341  0.019667 -0.000005      2.000000
  0.039344 -0.000001 -0.019673      2.000000
 -0.019673  0.019671 -0.000001      2.000000
  0.019672  0.000000 -0.019671      2.000000
 -0.000003  0.039340 -0.000004      1.000000
 -0.000002 -0.000004  0.039340      1.000000
  0.019668  0.039339 -0.000005      2.000000
 -0.019674 -0.000002  0.039342      2.000000
  0.039339  0.039337 -0.000006      1.000000
  0.039340 -0.000007  0.039338      1.000000
 -0.000003  0.019668  0.019668      2.000000
  0.019668  0.019667  0.019667      2.000000
  0.039340  0.019665  0.019666      2.000000
 -0.019674  0.019670  0.019670      2.000000
 -0.000004  0.039338  0.019666      2.000000
 -0.000001 -0.019674  0.039342      2.000000
  0.019667  0.039337  0.019665      2.000000
 -0.019672 -0.019672  0.039343      2.000000
  0.039338  0.039335  0.019664      2.000000
  0.039342 -0.019677  0.039340      2.000000
 -0.019676  0.039340  0.019668      2.000000
  0.019670 -0.019675  0.039341      2.000000
  0.000000 -0.019672  0.019672      2.000000
  0.019672 -0.019673  0.019671      2.000000
 -0.019671 -0.019671  0.019673      2.000000
  0.039343 -0.019675  0.019669      2.000000
 -0.000006  0.039336  0.039336      1.000000
  0.019666  0.039335  0.039335      2.000000
  0.039337  0.039333  0.039334      1.000000
 


--------------------------------------------------------------------------------------------------------




 Dimension of arrays:
   k-points           NKPTS =     36   k-points in BZ     NKDIM =     36   number of bands    NBANDS=    211
   number of dos      NEDOS =   3000   number of ions     NIONS =     48
   non local maximal  LDIM  =      6   non local SUM 2l+1 LMDIM =     18
   total plane-waves  NPLWV = 125000
   max r-space proj   IRMAX =      1   max aug-charges    IRDMAX=   5999
   dimension x,y,z NGX =    50 NGY =   50 NGZ =   50
   dimension x,y,z NGXF=   100 NGYF=  100 NGZF=  100
   support grid    NGXF=   100 NGYF=  100 NGZF=  100
   ions per type =               8   8  32
   NGX,Y,Z   is equivalent  to a cutoff of   6.54,  6.54,  6.54 a.u.
   NGXF,Y,Z  is equivalent  to a cutoff of  13.08, 13.08, 13.08 a.u.

 SYSTEM =  unknown system                          
 POSCAR =  Generation Seed Number                  

 Startparameter for this run:
   NWRITE =      2    write-flag & timer
   PREC   = normal    normal or accurate (medium, high low for compatibility)
   ISTART =      1    job   : 0-new  1-cont  2-samecut
   ICHARG =      1    charge: 1-file 2-atom 10-const
   ISPIN  =      1    spin polarized calculation?
   LNONCOLLINEAR =      F non collinear calculations
   LSORBIT =      F    spin-orbit coupling
   INIWAV =      1    electr: 0-lowe 1-rand  2-diag
   LASPH  =      F    aspherical Exc in radial PAW
   METAGGA=      F    non-selfconsistent MetaGGA calc.

 Electronic Relaxation 1
   ENCUT  =  250.0 eV  18.37 Ry    4.29 a.u.  16.38 16.39 16.39*2*pi/ulx,y,z
   ENINI  =  250.0     initial cutoff
   ENAUG  =  412.5 eV  augmentation charge cutoff
   NELM   =     60;   NELMIN=  2; NELMDL=  0     # of ELM steps 
   EDIFF  = 0.1E-05   stopping-criterion for ELM
   LREAL  =      F    real-space projection
   NLSPLINE    = F    spline interpolate recip. space projectors
   LCOMPAT=      F    compatible to vasp.4.4
   GGA_COMPAT  = T    GGA compatible to vasp.4.4-vasp.4.6
   LMAXPAW     = -100 max onsite density
   LMAXMIX     =    4 max onsite mixed and CHGCAR
   VOSKOWN=      0    Vosko Wilk Nusair interpolation
   ROPT   =    0.00000   0.00000   0.00000
 Ionic relaxation
   EDIFFG = -.1E-01   stopping-criterion for IOM
   NSW    =      0    number of steps for IOM
   NBLOCK =      1;   KBLOCK =      1    inner block; outer block 
   IBRION =     -1    ionic relax: 0-MD 1-quasi-New 2-CG
   NFREE  =      0    steps in history (QN), initial steepest desc. (CG)
   ISIF   =     -1    stress and relaxation
   IWAVPR =     10    prediction:  0-non 1-charg 2-wave 3-comb
   ISYM   =      2    0-nonsym 1-usesym 2-fastsym
   LCORR  =      T    Harris-Foulkes like correction to forces

   POTIM  = 0.5000    time-step for ionic-motion
   TEIN   =    0.0    initial temperature
   TEBEG  =    0.0;   TEEND  =   0.0 temperature during run
   SMASS  =  -3.00    Nose mass-parameter (am)
   estimated Nose-frequenzy (Omega)   =  0.10E-29 period in steps = 0.13E+47 mass=  -0.369E-26a.u.
   SCALEE = 1.0000    scale energy and forces
   NPACO  =    256;   APACO  = 16.0  distance and # of slots for P.C.
   PSTRESS=    0.0 pullay stress

  Mass of Ions in am
   POMASS = 107.87208.98126.90
  Ionic Valenz
   ZVAL   =  11.00  5.00  7.00
  Atomic Wigner-Seitz radii
   RWIGS  =  -1.00 -1.00 -1.00
  virtual crystal weights 
   VCA    =   1.00  1.00  1.00
   NELECT =     352.0000    total number of electrons
   NUPDOWN=      -1.0000    fix difference up-down

 DOS related values:
   EMIN   =  10.00;   EMAX   =-10.00  energy-range for DOS
   EFERMI =   0.00
   ISMEAR =    -5;   SIGMA  =   0.20  broadening in eV -4-tet -1-fermi 0-gaus

 Electronic relaxation 2 (details)
   IALGO  =     38    algorithm
   LDIAG  =      T    sub-space diagonalisation (order eigenvalues)
   LSUBROT=      F    optimize rotation matrix (better conditioning)
   TURBO    =      0    0=normal 1=particle mesh
   IRESTART =      0    0=no restart 2=restart with 2 vectors
   NREBOOT  =      0    no. of reboots
   NMIN     =      0    reboot dimension
   EREF     =   0.00    reference energy to select bands
   IMIX   =      4    mixing-type and parameters
     AMIX     =   0.40;   BMIX     =  1.00
     AMIX_MAG =   1.60;   BMIX_MAG =  1.00
     AMIN     =   0.10
     WC   =   100.;   INIMIX=   1;  MIXPRE=   1;  MAXMIX= -45

 Intra band minimization:
   WEIMIN = 0.0000     energy-eigenvalue tresh-hold
   EBREAK =  0.12E-08  absolut break condition
   DEPER  =   0.30     relativ break condition  

   TIME   =   0.40     timestep for ELM

  volume/ion in A,a.u.               =      42.77       288.62
  Fermi-wavevector in a.u.,A,eV,Ry     =   0.909489  1.718684 11.254323  0.827169
  Thomas-Fermi vector in A             =   2.033539
 
 Write flags
   LWAVE        =      T    write WAVECAR
   LDOWNSAMPLE  =      F    k-point downsampling of WAVECAR
   LCHARG       =      T    write CHGCAR
   LVTOT        =      F    write LOCPOT, total local potential
   LVHAR        =      F    write LOCPOT, Hartree potential only
   LELF         =      F    write electronic localiz. function (ELF)
   LORBIT       =     10    0 simple, 1 ext, 2 COOP (PROOUT), +10 PAW based schemes


 Dipole corrections
   LMONO  =      F    monopole corrections only (constant potential shift)
   LDIPOL =      F    correct potential (dipole corrections)
   IDIPOL =      0    1-x, 2-y, 3-z, 4-all directions 
   EPSILON=  1.0000000 bulk dielectric constant

 Exchange correlation treatment:
   GGA     =    --    GGA type
   LEXCH   =     8    internal setting for exchange type
   VOSKOWN=      0    Vosko Wilk Nusair interpolation
   LHFCALC =     F    Hartree Fock is set to
   LHFONE  =     F    Hartree Fock one center treatment
   AEXX    =    0.0000 exact exchange contribution

 Linear response parameters
   LEPSILON=     F    determine dielectric tensor
   LRPA    =     F    only Hartree local field effects (RPA)
   LNABLA  =     F    use nabla operator in PAW spheres
   LVEL    =     F    velocity operator in full k-point grid
   LINTERFAST=   F  fast interpolation
   KINTER  =     0    interpolate to denser k-point grid
   CSHIFT  =0.1000    complex shift for real part using Kramers Kronig
   OMEGAMAX=  -1.0    maximum frequency
   DEG_THRESHOLD= 0.2000000E-02 threshold for treating states as degnerate
   RTIME   =   -0.100 relaxation time in fs
  (WPLASMAI=    0.000 imaginary part of plasma frequency in eV, 0.658/RTIME)
   DFIELD  = 0.0000000 0.0000000 0.0000000 field for delta impulse in time
 
 Orbital magnetization related:
   ORBITALMAG=     F  switch on orbital magnetization
   LCHIMAG   =     F  perturbation theory with respect to B field
   DQ        =  0.001000  dq finite difference perturbation B field
   LLRAUG    =     F  two centre corrections for induced B field



--------------------------------------------------------------------------------------------------------


 Static calculation
 charge density and potential will be updated during run
 non-spin polarized calculation
 Variant of blocked Davidson
 Davidson routine will perform the subspace rotation
 perform sub-space diagonalisation
    after iterative eigenvector-optimisation
 modified Broyden-mixing scheme, WC =      100.0
 initial mixing is a Kerker type mixing with AMIX =  0.4000 and BMIX =      1.0000
 Hartree-type preconditioning will be used
 using additional bands           35
 reciprocal scheme for non local part
 use partial core corrections
 calculate Harris-corrections to forces 
   (improved forces if not selfconsistent)
 use gradient corrections 
 use of overlap-Matrix (Vanderbilt PP)
 Fermi weights with tetrahedron method with Bloechl corrections


--------------------------------------------------------------------------------------------------------


  energy-cutoff  :      250.00
  volume of cell :     2052.94
      direct lattice vectors                 reciprocal lattice vectors
    12.708902311  0.001029833  0.000767297     0.078685002 -0.000005803 -0.000005318
     0.000937419 12.709679303  0.001229968    -0.000006375  0.078680193 -0.000007617
     0.000859146  0.001230550 12.709628027    -0.000004750 -0.000007614  0.078680510

  length of vectors
    12.708902376 12.709679397 12.709628116     0.078685003  0.078680193  0.078680510


 
 old parameters found on file WAVECAR:
  energy-cutoff  :      250.00
  volume of cell :     2052.94
      direct lattice vectors                 reciprocal lattice vectors
    12.708902311  0.001029833  0.000767297     0.078685002 -0.000005803 -0.000005318
     0.000937419 12.709679303  0.001229968    -0.000006375  0.078680193 -0.000007617
     0.000859146  0.001230550 12.709628027    -0.000004750 -0.000007614  0.078680510

  length of vectors

 
 k-points in units of 2pi/SCALE and weight: agbii                                   
   0.00000000  0.00000000  0.00000000       0.016
   0.01967125 -0.00000145 -0.00000133       0.031
   0.03934250 -0.00000290 -0.00000266       0.016
  -0.00000159  0.01967005 -0.00000190       0.031
   0.00000119  0.00000190 -0.01967013       0.031
   0.01966966  0.01966860 -0.00000323       0.031
  -0.01967006  0.00000335 -0.01966880       0.031
   0.03934091  0.01966715 -0.00000456       0.031
   0.03934369 -0.00000100 -0.01967279       0.031
  -0.01967284  0.01967150 -0.00000057       0.031
   0.01967244  0.00000045 -0.01967146       0.031
  -0.00000319  0.03934010 -0.00000381       0.016
  -0.00000237 -0.00000381  0.03934025       0.016
   0.01966806  0.03933865 -0.00000514       0.031
  -0.01967363 -0.00000236  0.03934158       0.031
   0.03933931  0.03933719 -0.00000647       0.016
   0.03934013 -0.00000671  0.03933760       0.016
  -0.00000278  0.01966814  0.01966822       0.031
   0.01966847  0.01966669  0.01966689       0.031
   0.03933972  0.01966524  0.01966556       0.031
  -0.01967403  0.01966960  0.01966955       0.031
  -0.00000438  0.03933819  0.01966632       0.031
  -0.00000078 -0.01967386  0.03934216       0.031
   0.01966688  0.03933674  0.01966499       0.031
  -0.01967203 -0.01967240  0.03934349       0.031
   0.03933813  0.03933529  0.01966366       0.031
   0.03934172 -0.01967676  0.03933950       0.031
  -0.01967563  0.03933964  0.01966765       0.031
   0.01967047 -0.01967531  0.03934083       0.031
   0.00000041 -0.01967195  0.01967203       0.031
   0.01967166 -0.01967340  0.01967070       0.031
  -0.01967084 -0.01967050  0.01967336       0.031
   0.03934291 -0.01967485  0.01966937       0.031
  -0.00000556  0.03933629  0.03933645       0.016
   0.01966569  0.03933484  0.03933512       0.031
   0.03933694  0.03933339  0.03933379       0.016
 
 k-points in reciprocal lattice and weights: agbii                                   
   0.00000000  0.00000000  0.00000000       0.016
   0.25000000 -0.00000000  0.00000000       0.031
   0.50000000 -0.00000000  0.00000000       0.016
  -0.00000000  0.25000000  0.00000000       0.031
   0.00000000  0.00000000 -0.25000000       0.031
   0.25000000  0.25000000 -0.00000000       0.031
  -0.25000000  0.00000000 -0.25000000       0.031
   0.50000000  0.25000000 -0.00000000       0.031
   0.50000000 -0.00000000 -0.25000000       0.031
  -0.25000000  0.25000000  0.00000000       0.031
   0.25000000 -0.00000000 -0.25000000       0.031
  -0.00000000  0.50000000 -0.00000000       0.016
  -0.00000000 -0.00000000  0.50000000       0.016
   0.25000000  0.50000000  0.00000000       0.031
  -0.25000000  0.00000000  0.50000000       0.031
   0.50000000  0.50000000  0.00000000       0.016
   0.50000000 -0.00000000  0.50000000       0.016
  -0.00000000  0.25000000  0.25000000       0.031
   0.25000000  0.25000000  0.25000000       0.031
   0.50000000  0.25000000  0.25000000       0.031
  -0.25000000  0.25000000  0.25000000       0.031
  -0.00000000  0.50000000  0.25000000       0.031
   0.00000000 -0.25000000  0.50000000       0.031
   0.25000000  0.50000000  0.25000000       0.031
  -0.25000000 -0.25000000  0.50000000       0.031
   0.50000000  0.50000000  0.25000000       0.031
   0.50000000 -0.25000000  0.50000000       0.031
  -0.25000000  0.50000000  0.25000000       0.031
   0.25000000 -0.25000000  0.50000000       0.031
   0.00000000 -0.25000000  0.25000000       0.031
   0.25000000 -0.25000000  0.25000000       0.031
  -0.25000000 -0.25000000  0.25000000       0.031
   0.50000000 -0.25000000  0.25000000       0.031
  -0.00000000  0.50000000  0.50000000       0.016
   0.25000000  0.50000000  0.50000000       0.031
   0.50000000  0.50000000  0.50000000       0.016
 
 position of ions in fractional coordinates (direct lattice) 
   0.25542650  0.25941031  0.02359131
   0.49760758  0.50232305  0.99737431
   0.74015085  0.74449632  0.97678255
   0.02467184  0.27541116  0.25071949
   0.01102252  0.50453745  0.47685275
   0.49554228  0.98828121  0.52309552
   0.72436634  0.97532342  0.74959915
   0.25301913  0.74676586  0.50328370
   0.99733256  0.00230591  0.00016235
   0.99818156  0.74844125  0.74640958
   0.25131241  0.00091569  0.25365328
   0.75101709  0.50098257  0.24641411
   0.49969642  0.74919893  0.24972021
   0.49864675  0.24825086  0.75353984
   0.24984623  0.49944416  0.75013918
   0.75152231  0.24800936  0.49989757
   0.24770802  0.01274219  0.00246593
   0.25598656  0.98821598  0.49198754
   0.25994706  0.48894061  0.99439377
   0.24053337  0.50953922  0.50568130
   0.75696621  0.99118273  0.97978380
   0.74025190  0.00719071  0.51947657
   0.73914453  0.50496376  0.00801716
   0.76189044  0.49790537  0.49754491
   0.00829123  0.24254664  0.02058134
   0.99227796  0.25918034  0.48056822
   0.98694060  0.75183329  0.99744597
   0.01078495  0.74377875  0.50808935
   0.49489666  0.26031455  0.99191397
   0.50151132  0.23784735  0.50252415
   0.51049603  0.73956869  0.00531655
   0.49015146  0.75883694  0.49418991
   0.00421636  0.99002453  0.24655767
   0.00913157  0.99527012  0.75336175
   0.99146074  0.50599143  0.24264526
   0.00303028  0.50256784  0.75669696
   0.49689947  0.99641988  0.24337944
   0.49359592  0.00804884  0.75741060
   0.49942990  0.50464740  0.25713630
   0.49489539  0.50016589  0.74290005
   0.25541568  0.24148756  0.25781589
   0.25286760  0.25275025  0.74320541
   0.25510432  0.74963415  0.24223009
   0.25004811  0.74457871  0.75775629
   0.74077845  0.25386355  0.25352881
   0.74553956  0.25877543  0.74658372
   0.74689225  0.74647791  0.25677784
   0.75799905  0.74435618  0.74223689
 
 position of ions in cartesian coordinates  (Angst):
   3.24645383  3.29731395  0.30035180
   6.32537391  6.38610470 12.67725609
   9.40804191  9.46427369 12.41602654
   0.31402558  3.50072144  3.18690909
   0.14096681  6.41310727  6.06125008
   6.29917432 12.56189125  6.64994523
   9.20745934 12.39771634  9.52888183
   3.21672778  9.49203448  6.39766120
  12.67500443  0.03033468  0.00283146
  12.68713487  9.51439468  9.48827453
   3.19412365  0.01220904  3.22403278
   9.54528411  6.36840447  3.13302418
   6.35150985  9.52289999  3.17515584
   6.33813289  3.15662955  9.57789908
   3.17638395  6.34895548  9.53479593
   9.55168564  3.15350852  6.35439385
   3.14811108  0.16220727  0.03154673
   3.25465725 12.56077719  6.25439053
   3.30495452  6.21576964 12.63917574
   3.05782721  6.47695011  6.42783247
   9.62198057 12.59959991 12.45448764
   9.40824209  0.09279319  6.60293078
   9.39419583  6.41869856  0.10308332
   9.68368540  6.32961450  6.32480773
   0.10561745  3.08272389  0.26188580
  12.61141954  3.29571226  6.10892347
  12.54449344  9.55780375 12.67884922
   0.13819859  9.45382569  6.45854971
   6.29068956  3.31024467 12.60755754
   6.37431305  3.02409837  6.38757238
   6.48854200  9.40021314  0.06887274
   6.23042301  9.64568709  6.28227940
   0.05472521 12.58320203  3.13487719
   0.11763250 12.65050055  9.57617877
  12.60106053  6.43230841  3.08531409
   0.03963274  6.38841035  9.61795740
   6.31618997 12.66498835  3.09486899
   6.27372054  0.10373851  9.62679558
   6.34789980  6.41473742  3.26911062
   6.29068432  6.35837196  9.44297828
   3.24650079  3.06980975  3.27723701
   3.21454514  3.21354963  9.44636915
   3.24300668  9.52817049  3.07977212
   3.17918598  9.46454657  9.63190825
   9.41493680  3.22759919  3.22313752
   9.47587339  3.29063917  9.48969174
   9.49310098  9.48857998  3.26504203
   9.63467135  9.46222237  9.43505194
 


--------------------------------------------------------------------------------------------------------


 k-point   1 :   0.0000 0.0000 0.0000  plane waves:   18349
 k-point   2 :   0.2500-0.0000 0.0000  plane waves:   18465
 k-point   3 :   0.5000-0.0000 0.0000  plane waves:   18464
 k-point   4 :  -0.0000 0.2500 0.0000  plane waves:   18465
 k-point   5 :   0.0000 0.0000-0.2500  plane waves:   18465
 k-point   6 :   0.2500 0.2500-0.0000  plane waves:   18429
 k-point   7 :  -0.2500 0.0000-0.2500  plane waves:   18429
 k-point   8 :   0.5000 0.2500-0.0000  plane waves:   18418
 k-point   9 :   0.5000-0.0000-0.2500  plane waves:   18418
 k-point  10 :  -0.2500 0.2500 0.0000  plane waves:   18429
 k-point  11 :   0.2500-0.0000-0.2500  plane waves:   18429
 k-point  12 :  -0.0000 0.5000-0.0000  plane waves:   18464
 k-point  13 :  -0.0000-0.0000 0.5000  plane waves:   18464
 k-point  14 :   0.2500 0.5000 0.0000  plane waves:   18418
 k-point  15 :  -0.2500 0.0000 0.5000  plane waves:   18418
 k-point  16 :   0.5000 0.5000 0.0000  plane waves:   18438
 k-point  17 :   0.5000-0.0000 0.5000  plane waves:   18438
 k-point  18 :  -0.0000 0.2500 0.2500  plane waves:   18429
 k-point  19 :   0.2500 0.2500 0.2500  plane waves:   18430
 k-point  20 :   0.5000 0.2500 0.2500  plane waves:   18438
 k-point  21 :  -0.2500 0.2500 0.2500  plane waves:   18430
 k-point  22 :  -0.0000 0.5000 0.2500  plane waves:   18418
 k-point  23 :   0.0000-0.2500 0.5000  plane waves:   18418
 k-point  24 :   0.2500 0.5000 0.2500  plane waves:   18438
 k-point  25 :  -0.2500-0.2500 0.5000  plane waves:   18438
 k-point  26 :   0.5000 0.5000 0.2500  plane waves:   18432
 k-point  27 :   0.5000-0.2500 0.5000  plane waves:   18432
 k-point  28 :  -0.2500 0.5000 0.2500  plane waves:   18438
 k-point  29 :   0.2500-0.2500 0.5000  plane waves:   18438
 k-point  30 :   0.0000-0.2500 0.2500  plane waves:   18429
 k-point  31 :   0.2500-0.2500 0.2500  plane waves:   18430
 k-point  32 :  -0.2500-0.2500 0.2500  plane waves:   18430
 k-point  33 :   0.5000-0.2500 0.2500  plane waves:   18438
 k-point  34 :  -0.0000 0.5000 0.5000  plane waves:   18426
 k-point  35 :   0.2500 0.5000 0.5000  plane waves:   18433
 k-point  36 :   0.5000 0.5000 0.5000  plane waves:   18336

 maximum and minimum number of plane-waves per node :     18465    18336

 maximum number of plane-waves:     18465
 maximum index in each direction: 
   IXMAX=   16   IYMAX=   16   IZMAX=   16
   IXMIN=  -16   IYMIN=  -16   IZMIN=  -16


 serial   3D FFT for wavefunctions
 parallel 3D FFT for charge:
    minimum data exchange during FFTs selected (reduces bandwidth)


 total amount of memory used by VASP MPI-rank0  2761676. kBytes
=======================================================================

   base      :      30000. kBytes
   nonl-proj :     301348. kBytes
   fftplans  :      34720. kBytes
   grid      :      70000. kBytes
   one-center:        746. kBytes
   wavefun   :    2324862. kBytes
 
     INWAV:  cpu time    4.5395: real time    4.7899
 Broyden mixing: mesh for mixing (old mesh)
   NGX = 33   NGY = 33   NGZ = 33
  (NGX  =100   NGY  =100   NGZ  =100)
  gives a total of  35937 points

 initial charge density was supplied:
 number of electron     352.0000431 magnetization 
 keeping initial charge density in first step


--------------------------------------------------------------------------------------------------------


 Maximum index for augmentation-charges         5630 (set IRDMAX)


--------------------------------------------------------------------------------------------------------


 First call to EWALD:  gamma=   0.139
 Maximum number of real-space cells 3x 3x 3
 Maximum number of reciprocal cells 3x 3x 3

    FEWALD:  cpu time    0.0027: real time    0.0027


--------------------------------------- Iteration      1(   1)  ---------------------------------------


    POTLOK:  cpu time    0.4044: real time    1.0436
    SETDIJ:  cpu time    0.0275: real time    0.0275
     EDDAV:  cpu time   58.9080: real time   58.9082
 BZINTS: Fermi energy:    2.092467;  352.000000 electrons
         Band energy:-0.747678E+03;  BLOECHL correction:   -0.000000
       DOS:  cpu time    0.0585: real time    0.0585
    CHARGE:  cpu time    1.2264: real time    1.2265
    MIXING:  cpu time    0.0276: real time    0.0276
    --------------------------------------------
      LOOP:  cpu time   60.6525: real time   61.2919

 eigenvalue-minimisations  : 10960
 total energy-change (2. order) :-0.1199662E+03  (-0.3368546E-06)
 number of electron     352.0000431 magnetization 
 augmentation part      -23.1243482 magnetization 

 Broyden mixing:
  rms(total) = 0.67805E-03    rms(broyden)= 0.67801E-03
  rms(prec ) = 0.81179E-03
  weight for this iteration     100.00

 Free energy of the ion-electron system (eV)
  ---------------------------------------------------
  alpha Z        PSCENC =       226.84500962
  Ewald energy   TEWEN  =    -13908.86284044
  -Hartree energ DENC   =     -6052.19745793
  -exchange      EXHF   =         0.00000000
  -V(xc)+E(xc)   XCENC  =     -1392.26952955
  PAW double counting   =     22650.96952292   -20508.49672144
  entropy T*S    EENTRO =         0.00000000
  eigenvalues    EBANDS =      -747.67798739
  atomic energy  EATOM  =     19611.72375700
  Solvation  Ediel_sol  =         0.00000000
  ---------------------------------------------------
  free energy    TOTEN  =      -119.96624721 eV

  energy without entropy =     -119.96624721  energy(sigma->0) =     -119.96624721


--------------------------------------------------------------------------------------------------------




--------------------------------------- Iteration      1(   2)  ---------------------------------------


    POTLOK:  cpu time    0.5612: real time    0.5612
    SETDIJ:  cpu time    0.0549: real time    0.0549
     EDDAV:  cpu time   48.0916: real time   48.0919
 BZINTS: Fermi energy:    2.092516;  352.000000 electrons
         Band energy:-0.747678E+03;  BLOECHL correction:   -0.000000
       DOS:  cpu time    0.0559: real time    0.0559
    --------------------------------------------
      LOOP:  cpu time   48.7636: real time   48.7639

 eigenvalue-minimisations  :  8221
 total energy-change (2. order) : 0.1893277E-06  (-0.1426917E-06)
 number of electron     352.0000431 magnetization 
 augmentation part      -23.1243482 magnetization 

 Free energy of the ion-electron system (eV)
  ---------------------------------------------------
  alpha Z        PSCENC =       226.84500962
  Ewald energy   TEWEN  =    -13908.86284044
  -Hartree energ DENC   =     -6052.19751308
  -exchange      EXHF   =         0.00000000
  -V(xc)+E(xc)   XCENC  =     -1392.26898901
  PAW double counting   =     22650.53156060   -20508.05949568
  entropy T*S    EENTRO =         0.00000000
  eigenvalues    EBANDS =      -747.67773602
  atomic energy  EATOM  =     19611.72375700
  Solvation  Ediel_sol  =         0.00000000
  ---------------------------------------------------
  free energy    TOTEN  =      -119.96624702 eV

  energy without entropy =     -119.96624702  energy(sigma->0) =     -119.96624702


--------------------------------------------------------------------------------------------------------




 average (electrostatic) potential at core
  the test charge radii are     1.1249  1.4024  1.1875
  (the norm of the test charge is              1.0000)
       1 -75.0278       2 -74.9705       3 -75.0273       4 -75.1542       5 -75.0300
       6 -75.0306       7 -75.1572       8 -74.9726       9 -65.4428      10 -65.5009
      11 -65.4966      12 -65.4967      13 -65.4686      14 -65.5013      15 -65.4778
      16 -65.4427      17 -93.1576      18 -93.0499      19 -92.9762      20 -92.9769
      21 -93.0539      22 -93.0621      23 -93.0448      24 -93.1519      25 -93.0525
      26 -93.0601      27 -93.1576      28 -93.0476      29 -93.0435      30 -93.1508
      31 -92.9730      32 -92.9731      33 -93.2906      34 -93.2923      35 -93.1953
      36 -93.3109      37 -93.3026      38 -93.2050      39 -93.2780      40 -93.2957
      41 -93.1895      42 -93.3133      43 -93.2740      44 -93.2946      45 -93.2952
      46 -93.2979      47 -93.3035      48 -93.1992
 
 
 
 E-fermi :   2.0925     XC(G=0):  -7.8203     alpha+bet : -7.7967


 k-point     1 :       0.0000    0.0000    0.0000
  band No.  band energies     occupation 
      1     -10.8170      2.00000
      2     -10.6856      2.00000
      3     -10.6405      2.00000
      4     -10.5052      2.00000
      5     -10.4535      2.00000
      6     -10.2270      2.00000
      7     -10.1943      2.00000
      8     -10.0135      2.00000
      9      -9.8623      2.00000
     10      -9.8540      2.00000
     11      -9.8362      2.00000
     12      -9.8230      2.00000
     13      -9.8079      2.00000
     14      -9.7798      2.00000
     15      -9.7776      2.00000
     16      -9.7099      2.00000
     17      -9.6996      2.00000
     18      -9.6810      2.00000
     19      -9.6799      2.00000
     20      -9.6777      2.00000
     21      -9.6524      2.00000
     22      -9.6289      2.00000
     23      -9.6229      2.00000
     24      -9.5967      2.00000
     25      -9.5844      2.00000
     26      -9.5755      2.00000
     27      -9.5586      2.00000
     28      -9.5319      2.00000
     29      -9.5244      2.00000
     30      -9.5207      2.00000
     31      -9.5129      2.00000
     32      -9.4808      2.00000
     33      -8.1893      2.00000
     34      -8.0909      2.00000
     35      -8.0791      2.00000
     36      -7.8501      2.00000
     37      -7.8246      2.00000
     38      -7.6174      2.00000
     39      -7.5996      2.00000
     40      -7.5988      2.00000
     41      -1.7945      2.00000
     42      -1.7351      2.00000
     43      -1.6869      2.00000
     44      -1.6785      2.00000
     45      -1.6270      2.00000
     46      -1.5598      2.00000
     47      -1.4994      2.00000
     48      -1.4471      2.00000
     49      -1.4415      2.00000
     50      -1.4074      2.00000
     51      -1.4037      2.00000
     52      -1.3645      2.00000
     53      -1.3282      2.00000
     54      -1.2936      2.00000
     55      -1.2857      2.00000
     56      -1.2499      2.00000
     57      -1.2043      2.00000
     58      -1.1992      2.00000
     59      -1.1281      2.00000
     60      -1.0799      2.00000
     61      -1.0752      2.00000
     62      -1.0346      2.00000
     63      -0.9954      2.00000
     64      -0.9901      2.00000
     65      -0.9851      2.00000
     66      -0.9727      2.00000
     67      -0.9571      2.00000
     68      -0.9540      2.00000
     69      -0.9308      2.00000
     70      -0.8962      2.00000
     71      -0.8898      2.00000
     72      -0.8862      2.00000
     73      -0.8525      2.00000
     74      -0.8231      2.00000
     75      -0.8196      2.00000
     76      -0.7879      2.00000
     77      -0.7844      2.00000
     78      -0.7751      2.00000
     79      -0.7562      2.00000
     80      -0.7085      2.00000
     81      -0.6762      2.00000
     82      -0.6667      2.00000
     83      -0.6285      2.00000
     84      -0.6151      2.00000
     85      -0.6030      2.00000
     86      -0.5839      2.00000
     87      -0.5524      2.00000
     88      -0.5239      2.00000
     89      -0.5127      2.00000
     90      -0.4780      2.00000
     91      -0.4512      2.00000
     92      -0.4402      2.00000
     93      -0.4270      2.00000
     94      -0.3849      2.00000
     95      -0.3713      2.00000
     96      -0.3427      2.00000
     97      -0.3228      2.00000
     98      -0.3203      2.00000
     99      -0.2943      2.00000
    100      -0.2886      2.00000
    101      -0.2560      2.00000
    102      -0.2368      2.00000
    103      -0.2323      2.00000
    104      -0.1996      2.00000
    105      -0.1771      2.00000
    106      -0.1715      2.00000
    107      -0.1453      2.00000
    108      -0.1232      2.00000
    109      -0.0951      2.00000
    110      -0.0846      2.00000
    111      -0.0308      2.00000
    112      -0.0125      2.00000
    113       0.1058      2.00000
    114       0.1541      2.00000
    115       0.1962      2.00000
    116       0.2050      2.00000
    117       0.2092      2.00000
    118       0.2367      2.00000
    119       0.2614      2.00000
    120       0.2725      2.00000
    121       0.2788      2.00000
    122       0.3183      2.00000
    123       0.3841      2.00000
    124       0.4224      2.00000
    125       0.4295      2.00000
    126       0.4418      2.00000
    127       0.5095      2.00000
    128       0.5430      2.00000
    129       0.5499      2.00000
    130       0.5519      2.00000
    131       0.5651      2.00000
    132       0.5781      2.00000
    133       0.6155      2.00000
    134       0.6677      2.00000
    135       0.7212      2.00000
    136       0.7365      2.00000
    137       0.7424      2.00000
    138       0.7435      2.00000
    139       0.7566      2.00000
    140       0.8090      2.00000
    141       0.8098      2.00000
    142       0.8250      2.00000
    143       0.8493      2.00000
    144       0.8677      2.00000
    145       0.8748      2.00000
    146       0.9169      2.00000
    147       0.9668      2.00000
    148       0.9951      2.00000
    149       1.0192      2.00000
    150       1.0548      2.00000
    151       1.0940      2.00000
    152       1.1196      2.00000
    153       1.1312      2.00000
    154       1.1817      2.00000
    155       1.1965      2.00000
    156       1.2013      2.00000
    157       1.2249      2.00000
    158       1.2351      2.00000
    159       1.2719      2.00000
    160       1.3400      2.00000
    161       1.3872      2.00000
    162       1.4306      2.00000
    163       1.4951      2.00000
    164       1.5242      2.00000
    165       1.5712      2.00000
    166       1.5858      2.00000
    167       1.6087      2.00000
    168       1.6353      2.00000
    169       1.7910      2.00000
    170       1.7955      2.00000
    171       1.9108      2.00000
    172       1.9268      2.00000
    173       2.0359      2.00000
    174       2.0488      2.00000
    175       2.0625      2.00000
    176       2.0925      2.00000
    177       3.8703      0.00000
    178       4.0331      0.00000
    179       4.0411      0.00000
    180       4.1551      0.00000
    181       4.1921      0.00000
    182       4.3739      0.00000
    183       4.3771      0.00000
    184       4.4236      0.00000
    185       4.4496      0.00000
    186       4.4677      0.00000
    187       4.5441      0.00000
    188       4.5608      0.00000
    189       4.5873      0.00000
    190       4.5913      0.00000
    191       4.6312      0.00000
    192       4.6397      0.00000
    193       4.6691      0.00000
    194       4.7308      0.00000
    195       4.7590      0.00000
    196       4.7651      0.00000
    197       4.8310      0.00000
    198       4.8607      0.00000
    199       4.8666      0.00000
    200       4.9814      0.00000
    201       5.1074      0.00000
    202       5.3007      0.00000
    203       5.6119      0.00000
    204       5.7517      0.00000
    205       5.9535      0.00000
    206       5.9747      0.00000
    207       5.9870      0.00000
    208       6.0212      0.00000
    209       7.1823      0.00000
    210       7.2871      0.00000
    211       7.2996      0.00000

 k-point     2 :       0.2500   -0.0000    0.0000
  band No.  band energies     occupation 
      1     -10.8018      2.00000
      2     -10.6915      2.00000
      3     -10.6613      2.00000
      4     -10.5025      2.00000
      5     -10.4499      2.00000
      6     -10.2262      2.00000
      7     -10.1826      2.00000
      8     -10.0243      2.00000
      9      -9.8678      2.00000
     10      -9.8614      2.00000
     11      -9.8423      2.00000
     12      -9.8236      2.00000
     13      -9.8110      2.00000
     14      -9.7697      2.00000
     15      -9.7578      2.00000
     16      -9.7138      2.00000
     17      -9.7002      2.00000
     18      -9.6869      2.00000
     19      -9.6691      2.00000
     20      -9.6655      2.00000
     21      -9.6588      2.00000
     22      -9.6301      2.00000
     23      -9.6172      2.00000
     24      -9.6033      2.00000
     25      -9.5796      2.00000
     26      -9.5787      2.00000
     27      -9.5535      2.00000
     28      -9.5369      2.00000
     29      -9.5274      2.00000
     30      -9.5218      2.00000
     31      -9.5111      2.00000
     32      -9.4868      2.00000
     33      -8.1946      2.00000
     34      -8.0877      2.00000
     35      -8.0788      2.00000
     36      -7.8489      2.00000
     37      -7.8253      2.00000
     38      -7.6485      2.00000
     39      -7.5978      2.00000
     40      -7.5698      2.00000
     41      -1.7723      2.00000
     42      -1.7185      2.00000
     43      -1.6877      2.00000
     44      -1.6637      2.00000
     45      -1.6211      2.00000
     46      -1.5817      2.00000
     47      -1.5312      2.00000
     48      -1.5158      2.00000
     49      -1.4634      2.00000
     50      -1.4195      2.00000
     51      -1.3658      2.00000
     52      -1.3528      2.00000
     53      -1.3199      2.00000
     54      -1.2891      2.00000
     55      -1.2693      2.00000
     56      -1.2422      2.00000
     57      -1.1970      2.00000
     58      -1.1717      2.00000
     59      -1.1492      2.00000
     60      -1.1009      2.00000
     61      -1.0875      2.00000
     62      -1.0542      2.00000
     63      -1.0202      2.00000
     64      -1.0057      2.00000
     65      -0.9884      2.00000
     66      -0.9706      2.00000
     67      -0.9496      2.00000
     68      -0.9369      2.00000
     69      -0.9154      2.00000
     70      -0.9060      2.00000
     71      -0.8833      2.00000
     72      -0.8759      2.00000
     73      -0.8544      2.00000
     74      -0.8436      2.00000
     75      -0.8077      2.00000
     76      -0.7863      2.00000
     77      -0.7837      2.00000
     78      -0.7789      2.00000
     79      -0.7354      2.00000
     80      -0.7246      2.00000
     81      -0.6783      2.00000
     82      -0.6521      2.00000
     83      -0.6300      2.00000
     84      -0.6176      2.00000
     85      -0.6021      2.00000
     86      -0.5610      2.00000
     87      -0.5526      2.00000
     88      -0.5259      2.00000
     89      -0.4794      2.00000
     90      -0.4660      2.00000
     91      -0.4482      2.00000
     92      -0.4385      2.00000
     93      -0.4110      2.00000
     94      -0.3853      2.00000
     95      -0.3692      2.00000
     96      -0.3560      2.00000
     97      -0.3433      2.00000
     98      -0.3336      2.00000
     99      -0.3099      2.00000
    100      -0.2843      2.00000
    101      -0.2718      2.00000
    102      -0.2535      2.00000
    103      -0.1946      2.00000
    104      -0.1905      2.00000
    105      -0.1799      2.00000
    106      -0.1470      2.00000
    107      -0.1287      2.00000
    108      -0.1257      2.00000
    109      -0.1154      2.00000
    110      -0.0999      2.00000
    111      -0.0673      2.00000
    112      -0.0168      2.00000
    113       0.1106      2.00000
    114       0.1383      2.00000
    115       0.1616      2.00000
    116       0.1764      2.00000
    117       0.2064      2.00000
    118       0.2558      2.00000
    119       0.2742      2.00000
    120       0.2926      2.00000
    121       0.3109      2.00000
    122       0.3648      2.00000
    123       0.3806      2.00000
    124       0.3816      2.00000
    125       0.4435      2.00000
    126       0.4763      2.00000
    127       0.4989      2.00000
    128       0.5351      2.00000
    129       0.5544      2.00000
    130       0.5832      2.00000
    131       0.5952      2.00000
    132       0.6187      2.00000
    133       0.6279      2.00000
    134       0.6547      2.00000
    135       0.6794      2.00000
    136       0.7155      2.00000
    137       0.7281      2.00000
    138       0.7473      2.00000
    139       0.7845      2.00000
    140       0.7908      2.00000
    141       0.8038      2.00000
    142       0.8421      2.00000
    143       0.8477      2.00000
    144       0.8625      2.00000
    145       0.8919      2.00000
    146       0.9267      2.00000
    147       1.0013      2.00000
    148       1.0176      2.00000
    149       1.0200      2.00000
    150       1.0385      2.00000
    151       1.0494      2.00000
    152       1.1100      2.00000
    153       1.1578      2.00000
    154       1.1785      2.00000
    155       1.1834      2.00000
    156       1.1879      2.00000
    157       1.2180      2.00000
    158       1.2422      2.00000
    159       1.2755      2.00000
    160       1.3296      2.00000
    161       1.3855      2.00000
    162       1.4432      2.00000
    163       1.5044      2.00000
    164       1.5171      2.00000
    165       1.5625      2.00000
    166       1.5880      2.00000
    167       1.6351      2.00000
    168       1.6579      2.00000
    169       1.7854      2.00000
    170       1.7995      2.00000
    171       1.8875      2.00000
    172       1.9131      2.00000
    173       2.0048      2.00000
    174       2.0112      2.00000
    175       2.0412      2.00000
    176       2.0529      2.00000
    177       3.9308      0.00000
    178       4.0221      0.00000
    179       4.0636      0.00000
    180       4.1750      0.00000
    181       4.1958      0.00000
    182       4.3314      0.00000
    183       4.3534      0.00000
    184       4.4239      0.00000
    185       4.4542      0.00000
    186       4.4803      0.00000
    187       4.4977      0.00000
    188       4.5359      0.00000
    189       4.6061      0.00000
    190       4.6143      0.00000
    191       4.6290      0.00000
    192       4.6527      0.00000
    193       4.6789      0.00000
    194       4.6857      0.00000
    195       4.7267      0.00000
    196       4.7908      0.00000
    197       4.8127      0.00000
    198       4.8583      0.00000
    199       4.8884      0.00000
    200       4.9605      0.00000
    201       5.2350      0.00000
    202       5.3857      0.00000
    203       5.6228      0.00000
    204       5.7644      0.00000
    205       5.8499      0.00000
    206       5.8689      0.00000
    207       5.9905      0.00000
    208       6.0032      0.00000
    209       7.2956      0.00000
    210       7.3289      0.00000
    211       7.3983      0.00000

 k-point     3 :       0.5000   -0.0000    0.0000
  band No.  band energies     occupation 
      1     -10.7772      2.00000
      2     -10.7172      2.00000
      3     -10.6701      2.00000
      4     -10.5008      2.00000
      5     -10.4468      2.00000
      6     -10.2266      2.00000
      7     -10.1693      2.00000
      8     -10.0344      2.00000
      9      -9.8736      2.00000
     10      -9.8679      2.00000
     11      -9.8463      2.00000
     12      -9.8245      2.00000
     13      -9.8136      2.00000
     14      -9.7585      2.00000
     15      -9.7400      2.00000
     16      -9.7153      2.00000
     17      -9.7075      2.00000
     18      -9.6821      2.00000
     19      -9.6713      2.00000
     20      -9.6663      2.00000
     21      -9.6416      2.00000
     22      -9.6388      2.00000
     23      -9.6138      2.00000
     24      -9.5913      2.00000
     25      -9.5875      2.00000
     26      -9.5844      2.00000
     27      -9.5513      2.00000
     28      -9.5455      2.00000
     29      -9.5242      2.00000
     30      -9.5215      2.00000
     31      -9.5032      2.00000
     32      -9.5005      2.00000
     33      -8.1998      2.00000
     34      -8.0862      2.00000
     35      -8.0764      2.00000
     36      -7.8484      2.00000
     37      -7.8256      2.00000
     38      -7.6653      2.00000
     39      -7.5953      2.00000
     40      -7.5556      2.00000
     41      -1.7347      2.00000
     42      -1.7149      2.00000
     43      -1.6672      2.00000
     44      -1.6458      2.00000
     45      -1.6325      2.00000
     46      -1.6122      2.00000
     47      -1.5633      2.00000
     48      -1.5420      2.00000
     49      -1.4898      2.00000
     50      -1.4185      2.00000
     51      -1.3893      2.00000
     52      -1.3530      2.00000
     53      -1.2842      2.00000
     54      -1.2783      2.00000
     55      -1.2574      2.00000
     56      -1.2238      2.00000
     57      -1.2114      2.00000
     58      -1.1610      2.00000
     59      -1.1504      2.00000
     60      -1.1307      2.00000
     61      -1.1217      2.00000
     62      -1.0730      2.00000
     63      -1.0172      2.00000
     64      -0.9886      2.00000
     65      -0.9870      2.00000
     66      -0.9621      2.00000
     67      -0.9371      2.00000
     68      -0.9276      2.00000
     69      -0.9128      2.00000
     70      -0.9102      2.00000
     71      -0.8994      2.00000
     72      -0.8744      2.00000
     73      -0.8350      2.00000
     74      -0.8284      2.00000
     75      -0.8135      2.00000
     76      -0.8040      2.00000
     77      -0.7796      2.00000
     78      -0.7759      2.00000
     79      -0.7552      2.00000
     80      -0.7376      2.00000
     81      -0.6669      2.00000
     82      -0.6419      2.00000
     83      -0.6287      2.00000
     84      -0.6049      2.00000
     85      -0.5997      2.00000
     86      -0.5657      2.00000
     87      -0.5414      2.00000
     88      -0.4871      2.00000
     89      -0.4783      2.00000
     90      -0.4728      2.00000
     91      -0.4578      2.00000
     92      -0.4398      2.00000
     93      -0.3995      2.00000
     94      -0.3919      2.00000
     95      -0.3753      2.00000
     96      -0.3543      2.00000
     97      -0.3256      2.00000
     98      -0.3194      2.00000
     99      -0.3093      2.00000
    100      -0.3013      2.00000
    101      -0.2773      2.00000
    102      -0.2742      2.00000
    103      -0.2014      2.00000
    104      -0.1756      2.00000
    105      -0.1587      2.00000
    106      -0.1468      2.00000
    107      -0.1332      2.00000
    108      -0.1307      2.00000
    109      -0.1163      2.00000
    110      -0.0891      2.00000
    111      -0.0855      2.00000
    112      -0.0220      2.00000
    113       0.0682      2.00000
    114       0.0820      2.00000
    115       0.1275      2.00000
    116       0.1705      2.00000
    117       0.2070      2.00000
    118       0.2345      2.00000
    119       0.2892      2.00000
    120       0.3194      2.00000
    121       0.3428      2.00000
    122       0.4141      2.00000
    123       0.4295      2.00000
    124       0.4486      2.00000
    125       0.4737      2.00000
    126       0.4900      2.00000
    127       0.5173      2.00000
    128       0.5408      2.00000
    129       0.5589      2.00000
    130       0.5705      2.00000
    131       0.5820      2.00000
    132       0.6011      2.00000
    133       0.6074      2.00000
    134       0.6667      2.00000
    135       0.6708      2.00000
    136       0.6786      2.00000
    137       0.7383      2.00000
    138       0.7526      2.00000
    139       0.7740      2.00000
    140       0.7884      2.00000
    141       0.7962      2.00000
    142       0.8268      2.00000
    143       0.8467      2.00000
    144       0.9005      2.00000
    145       0.9076      2.00000
    146       0.9472      2.00000
    147       0.9633      2.00000
    148       0.9995      2.00000
    149       1.0321      2.00000
    150       1.0646      2.00000
    151       1.0949      2.00000
    152       1.0962      2.00000
    153       1.1167      2.00000
    154       1.1227      2.00000
    155       1.1802      2.00000
    156       1.1942      2.00000
    157       1.2215      2.00000
    158       1.2647      2.00000
    159       1.2813      2.00000
    160       1.3083      2.00000
    161       1.4238      2.00000
    162       1.4435      2.00000
    163       1.4854      2.00000
    164       1.5049      2.00000
    165       1.6144      2.00000
    166       1.6214      2.00000
    167       1.6406      2.00000
[...]
    143       0.8815      2.00000
    144       0.8842      2.00000
    145       0.9515      2.00000
    146       0.9529      2.00000
    147       1.0446      2.00000
    148       1.0476      2.00000
    149       1.0703      2.00000
    150       1.0725      2.00000
    151       1.1056      2.00000
    152       1.1077      2.00000
    153       1.1270      2.00000
    154       1.1310      2.00000
    155       1.1946      2.00000
    156       1.1962      2.00000
    157       1.2411      2.00000
    158       1.2421      2.00000
    159       1.2965      2.00000
    160       1.2974      2.00000
    161       1.4802      2.00000
    162       1.4846      2.00000
    163       1.6087      2.00000
    164       1.6150      2.00000
    165       1.6236      2.00000
    166       1.6245      2.00000
    167       1.7119      2.00000
    168       1.7178      2.00000
    169       1.7844      2.00000
    170       1.7885      2.00000
    171       1.8680      2.00000
    172       1.8748      2.00000
    173       1.9000      2.00000
    174       1.9039      2.00000
    175       2.0185      2.00000
    176       2.0198      2.00000
    177       3.8375      0.00000
    178       3.8449      0.00000
    179       4.0214      0.00000
    180       4.0267      0.00000
    181       4.1330      0.00000
    182       4.1338      0.00000
    183       4.2828      0.00000
    184       4.2877      0.00000
    185       4.3538      0.00000
    186       4.3559      0.00000
    187       4.4572      0.00000
    188       4.4598      0.00000
    189       4.6338      0.00000
    190       4.6363      0.00000
    191       4.7087      0.00000
    192       4.7107      0.00000
    193       4.8011      0.00000
    194       4.8036      0.00000
    195       4.8507      0.00000
    196       4.8536      0.00000
    197       4.9178      0.00000
    198       4.9205      0.00000
    199       5.0413      0.00000
    200       5.0504      0.00000
    201       5.5895      0.00000
    202       5.5925      0.00000
    203       5.6304      0.00000
    204       5.6320      0.00000
    205       5.6674      0.00000
    206       5.6715      0.00000
    207       5.8195      0.00000
    208       5.8224      0.00000
    209       7.3503      0.00000
    210       7.3540      0.00000
    211       7.5238      0.00000

 k-point    36 :       0.5000    0.5000    0.5000
  band No.  band energies     occupation 
      1     -10.7431      2.00000
      2     -10.7371      2.00000
      3     -10.6130      2.00000
      4     -10.6113      2.00000
      5     -10.3563      2.00000
      6     -10.3554      2.00000
      7     -10.0909      2.00000
      8     -10.0846      2.00000
      9      -9.8815      2.00000
     10      -9.8736      2.00000
     11      -9.7919      2.00000
     12      -9.7820      2.00000
     13      -9.7620      2.00000
     14      -9.7592      2.00000
     15      -9.7206      2.00000
     16      -9.7191      2.00000
     17      -9.6997      2.00000
     18      -9.6943      2.00000
     19      -9.6744      2.00000
     20      -9.6717      2.00000
     21      -9.6679      2.00000
     22      -9.6673      2.00000
     23      -9.6067      2.00000
     24      -9.6041      2.00000
     25      -9.5844      2.00000
     26      -9.5834      2.00000
     27      -9.5568      2.00000
     28      -9.5544      2.00000
     29      -9.5216      2.00000
     30      -9.5203      2.00000
     31      -9.5118      2.00000
     32      -9.5090      2.00000
     33      -8.1668      2.00000
     34      -8.1647      2.00000
     35      -7.9731      2.00000
     36      -7.9718      2.00000
     37      -7.7346      2.00000
     38      -7.7319      2.00000
     39      -7.5588      2.00000
     40      -7.5535      2.00000
     41      -1.7573      2.00000
     42      -1.7500      2.00000
     43      -1.6515      2.00000
     44      -1.6489      2.00000
     45      -1.6055      2.00000
     46      -1.6021      2.00000
     47      -1.5149      2.00000
     48      -1.5110      2.00000
     49      -1.4601      2.00000
     50      -1.4579      2.00000
     51      -1.4332      2.00000
     52      -1.4258      2.00000
     53      -1.3508      2.00000
     54      -1.3488      2.00000
     55      -1.2586      2.00000
     56      -1.2545      2.00000
     57      -1.2413      2.00000
     58      -1.2357      2.00000
     59      -1.1135      2.00000
     60      -1.1100      2.00000
     61      -1.0179      2.00000
     62      -1.0134      2.00000
     63      -0.9833      2.00000
     64      -0.9762      2.00000
     65      -0.9661      2.00000
     66      -0.9639      2.00000
     67      -0.9396      2.00000
     68      -0.9355      2.00000
     69      -0.8871      2.00000
     70      -0.8811      2.00000
     71      -0.8566      2.00000
     72      -0.8514      2.00000
     73      -0.8397      2.00000
     74      -0.8378      2.00000
     75      -0.8131      2.00000
     76      -0.8100      2.00000
     77      -0.8043      2.00000
     78      -0.7970      2.00000
     79      -0.7152      2.00000
     80      -0.7119      2.00000
     81      -0.6657      2.00000
     82      -0.6620      2.00000
     83      -0.5991      2.00000
     84      -0.5930      2.00000
     85      -0.5644      2.00000
     86      -0.5576      2.00000
     87      -0.5216      2.00000
     88      -0.5195      2.00000
     89      -0.4869      2.00000
     90      -0.4855      2.00000
     91      -0.4475      2.00000
     92      -0.4473      2.00000
     93      -0.3736      2.00000
     94      -0.3700      2.00000
     95      -0.3544      2.00000
     96      -0.3521      2.00000
     97      -0.3283      2.00000
     98      -0.3251      2.00000
     99      -0.2826      2.00000
    100      -0.2803      2.00000
    101      -0.2778      2.00000
    102      -0.2751      2.00000
    103      -0.2261      2.00000
    104      -0.2234      2.00000
    105      -0.1811      2.00000
    106      -0.1794      2.00000
    107      -0.1535      2.00000
    108      -0.1509      2.00000
    109      -0.1129      2.00000
    110      -0.1109      2.00000
    111      -0.0521      2.00000
    112      -0.0471      2.00000
    113       0.0631      2.00000
    114       0.0659      2.00000
    115       0.1724      2.00000
    116       0.1753      2.00000
    117       0.2606      2.00000
    118       0.2615      2.00000
    119       0.3141      2.00000
    120       0.3170      2.00000
    121       0.3928      2.00000
    122       0.3931      2.00000
    123       0.3960      2.00000
    124       0.4005      2.00000
    125       0.4464      2.00000
    126       0.4490      2.00000
    127       0.4795      2.00000
    128       0.4845      2.00000
    129       0.5410      2.00000
    130       0.5449      2.00000
    131       0.5783      2.00000
    132       0.5817      2.00000
    133       0.5990      2.00000
    134       0.6076      2.00000
    135       0.6335      2.00000
    136       0.6348      2.00000
    137       0.6997      2.00000
    138       0.7038      2.00000
    139       0.7287      2.00000
    140       0.7339      2.00000
    141       0.7676      2.00000
    142       0.7692      2.00000
    143       0.9064      2.00000
    144       0.9112      2.00000
    145       0.9404      2.00000
    146       0.9409      2.00000
    147       1.0622      2.00000
    148       1.0665      2.00000
    149       1.0834      2.00000
    150       1.0858      2.00000
    151       1.1039      2.00000
    152       1.1085      2.00000
    153       1.1195      2.00000
    154       1.1227      2.00000
    155       1.2053      2.00000
    156       1.2062      2.00000
    157       1.2359      2.00000
    158       1.2374      2.00000
    159       1.2994      2.00000
    160       1.3003      2.00000
    161       1.5129      2.00000
    162       1.5163      2.00000
    163       1.6121      2.00000
    164       1.6175      2.00000
    165       1.6198      2.00000
    166       1.6203      2.00000
    167       1.7286      2.00000
    168       1.7341      2.00000
    169       1.8039      2.00000
    170       1.8074      2.00000
    171       1.8709      2.00000
    172       1.8780      2.00000
    173       1.8962      2.00000
    174       1.8995      2.00000
    175       2.0566      2.00000
    176       2.0578      2.00000
    177       3.7381      0.00000
    178       3.7444      0.00000
    179       3.9440      0.00000
    180       3.9486      0.00000
    181       4.0722      0.00000
    182       4.0743      0.00000
    183       4.2574      0.00000
    184       4.2603      0.00000
    185       4.3481      0.00000
    186       4.3486      0.00000
    187       4.4540      0.00000
    188       4.4570      0.00000
    189       4.6481      0.00000
    190       4.6510      0.00000
    191       4.7340      0.00000
    192       4.7354      0.00000
    193       4.8491      0.00000
    194       4.8539      0.00000
    195       4.8806      0.00000
    196       4.8841      0.00000
    197       4.9849      0.00000
    198       4.9868      0.00000
    199       5.0594      0.00000
    200       5.0644      0.00000
    201       5.5730      0.00000
    202       5.5780      0.00000
    203       5.6038      0.00000
    204       5.6046      0.00000
    205       5.6353      0.00000
    206       5.6410      0.00000
    207       5.8330      0.00000
    208       5.8359      0.00000
    209       7.2680      0.00000
    210       7.2719      0.00000
    211       7.5380      0.00000


--------------------------------------------------------------------------------------------------------


 soft charge-density along one line, spin component           1
         0         1         2         3         4         5         6         7         8         9
 total charge-density along one line
 
 pseudopotential strength for first ion, spin component:           1
 -6.433  -0.000   0.000  -0.001   0.000  -6.569  -0.000   0.000
 -0.000  -6.441  -0.001  -0.000   0.001  -0.000  -6.576  -0.001
  0.000  -0.001  -6.435   0.000  -0.001   0.000  -0.001  -6.571
 -0.001  -0.000   0.000  -6.438  -0.001  -0.001  -0.000   0.000
  0.000   0.001  -0.001  -0.001  -6.425   0.000   0.001  -0.001
 -6.569  -0.000   0.000  -0.001   0.000  -6.673  -0.000   0.000
 -0.000  -6.576  -0.001  -0.000   0.001  -0.000  -6.681  -0.001
  0.000  -0.001  -6.571   0.000  -0.001   0.000  -0.001  -6.675
 -0.001  -0.000   0.000  -6.573  -0.001  -0.001  -0.000   0.000
  0.000   0.001  -0.001  -0.001  -6.560   0.000   0.001  -0.001
  0.000  -0.001   0.000  -0.000  -0.001   0.000  -0.001   0.000
  0.001  -0.001   0.000  -0.000  -0.002   0.001  -0.001   0.000
 -0.002  -0.006   0.004   0.000   0.006  -0.002  -0.006   0.003
  0.000  -0.006  -0.008  -0.002  -0.000   0.000  -0.006  -0.008
 -0.006   0.000   0.001  -0.006  -0.002  -0.005   0.000   0.001
 -0.002  -0.008   0.004   0.000   0.008  -0.002  -0.007   0.004
  0.000  -0.007  -0.010  -0.002  -0.000   0.000  -0.007  -0.009
 -0.007   0.000   0.001  -0.008  -0.002  -0.007   0.000   0.001
 total augmentation occupancy for first ion, spin component:           1
  2.275  -0.004  -0.048  -0.007   0.011  -0.296   0.008   0.049   0.012  -0.009  -0.062   0.014   0.003   0.004   0.017  -0.001
 -0.004   2.295  -0.054  -0.001   0.109   0.008  -0.322   0.053  -0.003  -0.109   0.134  -0.022   0.069   0.025   0.000  -0.006
 -0.048  -0.054   3.833   0.081   0.089   0.049   0.054  -1.691  -0.068  -0.095   0.172  -0.020   0.053  -0.222   0.004  -0.002
 -0.007  -0.001   0.081   2.293  -0.133   0.012  -0.003  -0.068  -0.293   0.123   0.068  -0.014  -0.000  -0.008   0.042  -0.000
  0.011   0.109   0.089  -0.133   4.323  -0.009  -0.110  -0.095   0.123  -2.148   0.163  -0.031   0.101  -0.016  -0.030  -0.003
 -0.296   0.008   0.049   0.012  -0.009   0.299  -0.011  -0.050  -0.017   0.007   0.053  -0.013  -0.001  -0.003  -0.010  -0.000
  0.008  -0.322   0.054  -0.003  -0.110  -0.011   0.329  -0.053   0.005   0.109  -0.122   0.026  -0.053  -0.016  -0.000   0.004
  0.049   0.053  -1.691  -0.068  -0.095  -0.050  -0.053   1.549   0.057   0.100  -0.153   0.026  -0.051   0.201  -0.006   0.003
  0.012  -0.003  -0.068  -0.293   0.123  -0.017   0.005   0.057   0.278  -0.115  -0.061   0.015   0.000   0.009  -0.030   0.000
 -0.009  -0.109  -0.095   0.123  -2.148   0.007   0.109   0.100  -0.115   1.976  -0.142   0.029  -0.095   0.014   0.029   0.006
 -0.062   0.134   0.172   0.068   0.163   0.053  -0.122  -0.153  -0.061  -0.142   1.439  -0.307   0.040   0.048   0.014  -0.003
  0.014  -0.022  -0.020  -0.014  -0.031  -0.013   0.026   0.026   0.015   0.029  -0.307   0.070  -0.007  -0.011  -0.003   0.001
  0.003   0.069   0.053  -0.000   0.101  -0.001  -0.053  -0.051   0.000  -0.095   0.040  -0.007   0.103  -0.009   0.002  -0.007
  0.004   0.025  -0.222  -0.008  -0.016  -0.003  -0.016   0.201   0.009   0.014   0.048  -0.011  -0.009   0.079  -0.004   0.001
  0.017   0.000   0.004   0.042  -0.030  -0.010  -0.000  -0.006  -0.030   0.029   0.014  -0.003   0.002  -0.004   0.087  -0.000
 -0.001  -0.006  -0.002  -0.000  -0.003  -0.000   0.004   0.003   0.000   0.006  -0.003   0.001  -0.007   0.001  -0.000   0.001
 -0.000  -0.004   0.009  -0.001   0.001   0.000   0.001  -0.013  -0.000  -0.001  -0.005   0.001   0.001  -0.005   0.000  -0.000
 -0.004  -0.000   0.000  -0.005   0.001   0.001   0.000   0.001   0.002  -0.002  -0.001   0.000  -0.000   0.000  -0.006   0.000


------------------------ aborting loop because EDIFF is reached ----------------------------------------


 


 total charge     
 
# of ion       s       p       d       tot
------------------------------------------
    1        0.241   0.152   9.320   9.713
    2        0.238   0.147   9.323   9.709
    3        0.241   0.152   9.320   9.713
    4        0.253   0.159   9.312   9.724
    5        0.241   0.151   9.320   9.713
    6        0.241   0.151   9.320   9.712
    7        0.253   0.158   9.312   9.724
    8        0.239   0.147   9.323   9.709
    9        1.833   1.401   0.135   3.369
   10        1.834   1.401   0.138   3.373
   11        1.834   1.401   0.138   3.373
   12        1.834   1.401   0.138   3.373
   13        1.835   1.398   0.139   3.372
   14        1.834   1.401   0.138   3.373
   15        1.835   1.398   0.139   3.371
   16        1.833   1.401   0.135   3.370
   17        1.517   2.745   0.013   4.275
   18        1.516   2.743   0.015   4.274
   19        1.513   2.747   0.016   4.276
   20        1.513   2.747   0.016   4.276
   21        1.515   2.743   0.015   4.272
   22        1.514   2.743   0.015   4.272
   23        1.516   2.744   0.015   4.274
   24        1.517   2.745   0.012   4.275
   25        1.515   2.743   0.015   4.272
   26        1.514   2.743   0.015   4.272
   27        1.517   2.745   0.013   4.275
   28        1.516   2.743   0.015   4.274
   29        1.516   2.743   0.015   4.274
   30        1.517   2.745   0.012   4.275
   31        1.513   2.748   0.016   4.277
   32        1.513   2.748   0.016   4.277
   33        1.518   2.742   0.011   4.271
   34        1.518   2.742   0.011   4.271
   35        1.514   2.742   0.017   4.274
   36        1.518   2.742   0.012   4.272
   37        1.518   2.742   0.012   4.272
   38        1.514   2.742   0.017   4.274
   39        1.518   2.743   0.012   4.273
   40        1.518   2.742   0.013   4.273
   41        1.514   2.743   0.017   4.274
   42        1.519   2.742   0.012   4.272
   43        1.518   2.743   0.012   4.273
   44        1.518   2.742   0.013   4.273
   45        1.518   2.742   0.011   4.271
   46        1.518   2.742   0.011   4.271
   47        1.518   2.742   0.012   4.272
   48        1.514   2.742   0.017   4.274
--------------------------------------------------
tot         65.137 100.213  76.094 241.443
 


--------------------------------------------------------------------------------------------------------



  FREE ENERGIE OF THE ION-ELECTRON SYSTEM (eV)
  ---------------------------------------------------
  free  energy   TOTEN  =      -119.96624702 eV

  energy  without entropy=     -119.96624702  energy(sigma->0) =     -119.96624702
 


--------------------------------------------------------------------------------------------------------




--------------------------------------------------------------------------------------------------------


 writing wavefunctions
     LOOP+:  cpu time  114.2511: real time  114.9213
    4ORBIT:  cpu time    0.0000: real time    0.0000
 


 total charge     
 
# of ion       s       p       d       tot
------------------------------------------
    1        0.241   0.152   9.320   9.713
    2        0.238   0.147   9.323   9.709
    3        0.241   0.152   9.320   9.713
    4        0.253   0.159   9.312   9.724
    5        0.241   0.151   9.320   9.713
    6        0.241   0.151   9.320   9.712
    7        0.253   0.158   9.312   9.724
    8        0.239   0.147   9.323   9.709
    9        1.833   1.401   0.135   3.369
   10        1.834   1.401   0.138   3.373
   11        1.834   1.401   0.138   3.373
   12        1.834   1.401   0.138   3.373
   13        1.835   1.398   0.139   3.372
   14        1.834   1.401   0.138   3.373
   15        1.835   1.398   0.139   3.371
   16        1.833   1.401   0.135   3.370
   17        1.517   2.745   0.013   4.275
   18        1.516   2.743   0.015   4.274
   19        1.513   2.747   0.016   4.276
   20        1.513   2.747   0.016   4.276
   21        1.515   2.743   0.015   4.272
   22        1.514   2.743   0.015   4.272
   23        1.516   2.744   0.015   4.274
   24        1.517   2.745   0.012   4.275
   25        1.515   2.743   0.015   4.272
   26        1.514   2.743   0.015   4.272
   27        1.517   2.745   0.013   4.275
   28        1.516   2.743   0.015   4.274
   29        1.516   2.743   0.015   4.274
   30        1.517   2.745   0.012   4.275
   31        1.513   2.748   0.016   4.277
   32        1.513   2.748   0.016   4.277
   33        1.518   2.742   0.011   4.271
   34        1.518   2.742   0.011   4.271
   35        1.514   2.742   0.017   4.274
   36        1.518   2.742   0.012   4.272
   37        1.518   2.742   0.012   4.272
   38        1.514   2.742   0.017   4.274
   39        1.518   2.743   0.012   4.273
   40        1.518   2.742   0.013   4.273
   41        1.514   2.743   0.017   4.274
   42        1.519   2.742   0.012   4.272
   43        1.518   2.743   0.012   4.273
   44        1.518   2.742   0.013   4.273
   45        1.518   2.742   0.011   4.271
   46        1.518   2.742   0.011   4.271
   47        1.518   2.742   0.012   4.272
   48        1.514   2.742   0.017   4.274
--------------------------------------------------
tot         65.137 100.213  76.094 241.443
 
 BZINTS: Fermi energy:    2.092516;  352.000000 electrons
         Band energy:-0.747678E+03;  BLOECHL correction:   -0.000000

 total amount of memory used by VASP MPI-rank0  2761676. kBytes
=======================================================================

   base      :      30000. kBytes
   nonl-proj :     301348. kBytes
   fftplans  :      34720. kBytes
   grid      :      70000. kBytes
   one-center:        746. kBytes
   wavefun   :    2324862. kBytes
 
  
  
 General timing and accounting informations for this job:
 ========================================================
  
                  Total CPU time used (sec):      154.950
                            User time (sec):      149.914
                          System time (sec):        5.036
                         Elapsed time (sec):      156.406
  
                   Maximum memory used (kb):     4318524.
                   Average memory used (kb):           0.
  
                          Minor page faults:       415695
                          Major page faults:            0
                 Voluntary context switches:         2272
