 vasp.6.1.0 28Jan20 (build Jan 13 2021 21:44:47) complex                        
  
 executed on             LinuxIFC date 2021.09.12  19:34:12
 running on    9 total cores
 distrk:  each k-point on    1 cores,    9 groups
 distr:  one band on NCORE=   1 cores,    1 groups


--------------------------------------------------------------------------------------------------------


 INCAR:
 POTCAR:    PAW_PBE Ag 02Apr2005                  
 POTCAR:    PAW_PBE Bi 08Apr2002                  
 POTCAR:    PAW_PBE I 08Apr2002                   
 -----------------------------------------------------------------------------
|                                                                             |
|           W    W    AA    RRRRR   N    N  II  N    N   GGGG   !!!           |
|           W    W   A  A   R    R  NN   N  II  NN   N  G    G  !!!           |
|           W    W  A    A  R    R  N N  N  II  N N  N  G       !!!           |
|           W WW W  AAAAAA  RRRRR   N  N N  II  N  N N  G  GGG   !            |
|           WW  WW  A    A  R   R   N   NN  II  N   NN  G    G                |
|           W    W  A    A  R    R  N    N  II  N    N   GGGG   !!!           |
|                                                                             |
|     For optimal performance we recommend to set                             |
|       NCORE = 4 - approx SQRT(number of cores).                             |
|     NCORE specifies how many cores store one orbital (NPAR=cpu/NCORE).      |
|     This setting can greatly improve the performance of VASP for DFT.       |
|     The default, NCORE=1 might be grossly inefficient on modern             |
|     multi-core architectures or massively parallel machines. Do your        |
|     own testing!!!!                                                         |
|     Unfortunately you need to use the default for GW and RPA                |
|     calculations (for HF NCORE is supported but not extensively tested      |
|     yet).                                                                   |
|                                                                             |
 -----------------------------------------------------------------------------

 POTCAR:    PAW_PBE Ag 02Apr2005                  
   VRHFIN =Ag : s1 d10                                                                              
   LEXCH  = PE                                                                                      
   EATOM  =  1037.2675 eV,   76.2370 Ry                                                             
                                                                                                    
   TITEL  = PAW_PBE Ag 02Apr2005                                                                    
   LULTRA =        F    use ultrasoft PP ?                                                          
   IUNSCR =        1    unscreen: 0-lin 1-nonlin 2-no                                               
   RPACOR =    2.000    partial core radius                                                         
   POMASS =  107.868; ZVAL   =   11.000    mass and valenz                                          
   RCORE  =    2.500    outmost cutoff radius                                                       
   RWIGS  =    2.840; RWIGS  =    1.503    wigner-seitz radius (au A)                               
   ENMAX  =  249.844; ENMIN  =  187.383 eV                                                          
   ICORE  =        3    local potential                                                             
   LCOR   =        T    correct aug charges                                                         
   LPAW   =        T    paw PP                                                                      
   EAUG   =  412.496                                                                                
   DEXC   =    0.000                                                                                
   RMAX   =    2.560    core radius for proj-oper                                                   
   RAUG   =    1.300    factor for augmentation sphere                                              
   RDEP   =    2.576    radius for radial grids                                                     
   RDEPT  =    2.072    core radius for aug-charge                                                  
                                                                                                    
   Atomic configuration                                                                             
   12 entries                                                                                       
     n  l   j            E        occ.                                                              
     1  0  0.50    -25324.9161   2.0000                                                             
     2  0  0.50     -3728.5341   2.0000                                                             
     2  1  1.50     -3344.0404   6.0000                                                             
     3  0  0.50      -683.5581   2.0000                                                             
     3  1  1.50      -557.3225   6.0000                                                             
     3  2  2.50      -358.3853  10.0000                                                             
     4  0  0.50       -95.0341   2.0000                                                             
     4  1  1.50       -58.5511   6.0000                                                             
     4  2  2.50        -7.4440  10.0000                                                             
     5  0  0.50        -4.4045   1.0000                                                             
     5  1  0.50        -1.3606   0.0000                                                             
     4  3  2.50        -1.3606   0.0000                                                             
   Description                                                                                      
     l       E           TYP  RCUT    TYP  RCUT                                                     
     2     -7.4439781     23  2.400                                                                 
     2     -8.8045607     23  2.400                                                                 
     0     -4.4044681     23  2.400                                                                 
     0      1.9520038     23  2.400                                                                 
     1     -1.3605826     23  2.500                                                                 
     1     27.2116520     23  2.500                                                                 
     3     -4.0817478     23  2.400                                                                 
  local pseudopotential read in
  partial core-charges read in
  partial kinetic energy density read in
  atomic valenz-charges read in
  non local Contribution for L=           2  read in
    real space projection operators read in
  non local Contribution for L=           2  read in
    real space projection operators read in
  non local Contribution for L=           0  read in
    real space projection operators read in
  non local Contribution for L=           0  read in
    real space projection operators read in
  non local Contribution for L=           1  read in
    real space projection operators read in
  non local Contribution for L=           1  read in
    real space projection operators read in
    PAW grid and wavefunctions read in
 
   number of l-projection  operators is LMAX  =           6
   number of lm-projection operators is LMMAX =          18
 
 POTCAR:    PAW_PBE Bi 08Apr2002                  
   VRHFIN =Bi:                                                                                      
   LEXCH  = PE                                                                                      
   EATOM  =   150.8133 eV,   11.0845 Ry                                                             
                                                                                                    
   TITEL  = PAW_PBE Bi 08Apr2002                                                                    
   LULTRA =        F    use ultrasoft PP ?                                                          
   IUNSCR =        1    unscreen: 0-lin 1-nonlin 2-no                                               
   RPACOR =    2.200    partial core radius                                                         
   POMASS =  208.980; ZVAL   =    5.000    mass and valenz                                          
   RCORE  =    3.000    outmost cutoff radius                                                       
   RWIGS  =    3.090; RWIGS  =    1.635    wigner-seitz radius (au A)                               
   ENMAX  =  105.037; ENMIN  =   78.777 eV                                                          
   ICORE  =        3    local potential                                                             
   LCOR   =        T    correct aug charges                                                         
   LPAW   =        T    paw PP                                                                      
   EAUG   =  265.427                                                                                
   DEXC   =    0.000                                                                                
   RMAX   =    3.067    core radius for proj-oper                                                   
   RAUG   =    1.300    factor for augmentation sphere                                              
   RDEP   =    3.012    radius for radial grids                                                     
   RDEPT  =    2.604    core radius for aug-charge                                                  
                                                                                                    
   Atomic configuration                                                                             
   17 entries                                                                                       
     n  l   j            E        occ.                                                              
     1  0  0.50    -90639.6582   2.0000                                                             
     2  0  0.50    -16282.4667   2.0000                                                             
     2  1  1.50    -13922.8287   6.0000                                                             
     3  0  0.50     -3930.4763   2.0000                                                             
     3  1  1.50     -3256.7013   6.0000                                                             
     3  2  2.50     -2581.6169  10.0000                                                             
     4  0  0.50      -902.2614   2.0000                                                             
     4  1  1.50      -681.5915   6.0000                                                             
     4  2  2.50      -429.8249  10.0000                                                             
     4  3  3.50      -152.6004  14.0000                                                             
     5  0  0.50      -157.7156   2.0000                                                             
     5  1  1.50       -95.8054   6.0000                                                             
     5  2  2.50       -27.0806  10.0000                                                             
     6  0  0.50       -14.4732   2.0000                                                             
     6  1  1.50        -4.5702   3.0000                                                             
     6  2  2.50        -2.7212   0.0000                                                             
     5  3  2.50        -2.7212   0.0000                                                             
   Description                                                                                      
     l       E           TYP  RCUT    TYP  RCUT                                                     
     0    -14.4732299     23  3.000                                                                 
     0    -12.2452434     23  3.000                                                                 
     1     -4.5701666     23  3.000                                                                 
     1    -13.6058260     23  3.000                                                                 
     2     -2.7211652     23  3.000                                                                 
     3     -1.3605826      7  3.000                                                                 
  local pseudopotential read in
  partial core-charges read in
  partial kinetic energy density read in
  kinetic energy density of atom read in
  atomic valenz-charges read in
  non local Contribution for L=           0  read in
    real space projection operators read in
  non local Contribution for L=           0  read in
    real space projection operators read in
  non local Contribution for L=           1  read in
    real space projection operators read in
  non local Contribution for L=           1  read in
    real space projection operators read in
  non local Contribution for L=           2  read in
    real space projection operators read in
    PAW grid and wavefunctions read in
 
   number of l-projection  operators is LMAX  =           5
   number of lm-projection operators is LMMAX =          13
 
 POTCAR:    PAW_PBE I 08Apr2002                   
   VRHFIN =I : s2p5                                                                                 
   LEXCH  = PE                                                                                      
   EATOM  =   315.8678 eV,   23.2156 Ry                                                             
                                                                                                    
   TITEL  = PAW_PBE I 08Apr2002                                                                     
   LULTRA =        F    use ultrasoft PP ?                                                          
   IUNSCR =        1    unscreen: 0-lin 1-nonlin 2-no                                               
   RPACOR =    2.200    partial core radius                                                         
   POMASS =  126.904; ZVAL   =    7.000    mass and valenz                                          
   RCORE  =    2.300    outmost cutoff radius                                                       
   RWIGS  =    2.810; RWIGS  =    1.487    wigner-seitz radius (au A)                               
   ENMAX  =  175.647; ENMIN  =  131.735 eV                                                          
   ICORE  =        3    local potential                                                             
   LCOR   =        T    correct aug charges                                                         
   LPAW   =        T    paw PP                                                                      
   EAUG   =  370.139                                                                                
   DEXC   =    0.000                                                                                
   RMAX   =    2.359    core radius for proj-oper                                                   
   RAUG   =    1.300    factor for augmentation sphere                                              
   RDEP   =    2.392    radius for radial grids                                                     
   RDEPT  =    2.170    core radius for aug-charge                                                  
                                                                                                    
   Atomic configuration                                                                             
   13 entries                                                                                       
     n  l   j            E        occ.                                                              
     1  0  0.50    -32976.3739   2.0000                                                             
     2  0  0.50     -5094.5933   2.0000                                                             
     2  1  1.50     -4572.0131   6.0000                                                             
     3  0  0.50     -1028.2813   2.0000                                                             
     3  1  1.50      -859.0250   6.0000                                                             
     3  2  2.50      -605.7620  10.0000                                                             
     4  0  0.50      -180.5540   2.0000                                                             
     4  1  1.50      -127.5306   6.0000                                                             
     4  2  2.50       -50.2720  10.0000                                                             
     5  0  0.50       -17.4058   2.0000                                                             
     5  1  0.50        -7.0851   5.0000                                                             
     5  2  1.50        -7.0750   0.0000                                                             
     4  3  2.50        -7.0750   0.0000                                                             
   Description                                                                                      
     l       E           TYP  RCUT    TYP  RCUT                                                     
     0    -17.4058016     23  2.300                                                                 
     0    -18.7663842     23  2.300                                                                 
     1     -7.0850686     23  2.300                                                                 
     1     -4.2150896     23  2.300                                                                 
     2     -7.0750295     23  2.300                                                                 
     3     -1.3605826     23  2.300                                                                 
  local pseudopotential read in
  partial core-charges read in
  partial kinetic energy density read in
  atomic valenz-charges read in
  non local Contribution for L=           0  read in
    real space projection operators read in
  non local Contribution for L=           0  read in
    real space projection operators read in
  non local Contribution for L=           1  read in
    real space projection operators read in
  non local Contribution for L=           1  read in
    real space projection operators read in
  non local Contribution for L=           2  read in
    real space projection operators read in
    PAW grid and wavefunctions read in
 
   number of l-projection  operators is LMAX  =           5
   number of lm-projection operators is LMMAX =          13
 
 -----------------------------------------------------------------------------
|                                                                             |
|               ----> ADVICE to this user running VASP <----                  |
|                                                                             |
|     You have a (more or less) 'large supercell' and for larger cells it     |
|     might be more efficient to use real-space projection operators.         |
|     Therefore, try LREAL= Auto in the INCAR file.                           |
|     Mind: For very accurate calculation, you might also keep the            |
|     reciprocal projection scheme (i.e. LREAL=.FALSE.).                      |
|                                                                             |
 -----------------------------------------------------------------------------

  PAW_PBE Ag 02Apr2005                  :
 energy of atom  1       EATOM=-1037.2675
 kinetic energy error for atom=    0.0686 (will be added to EATOM!!)
  PAW_PBE Bi 08Apr2002                  :
 energy of atom  2       EATOM= -150.8133
 kinetic energy error for atom=    0.0004 (will be added to EATOM!!)
  PAW_PBE I 08Apr2002                   :
 energy of atom  3       EATOM= -315.8678
 kinetic energy error for atom=    0.0044 (will be added to EATOM!!)
 
 
 POSCAR: Generation Seed Number
  positions in direct lattice
  velocities in cartesian coordinates
 exchange correlation table for  LEXCH =        8
   RHO(1)=    0.500       N(1)  =     2000
   RHO(2)=  100.500       N(2)  =     4000
 


--------------------------------------------------------------------------------------------------------


 ion  position               nearest neighbor table
   1  0.003  1.000  0.998-  17 3.02  34 3.02  33 3.08  21 3.08  27 3.26  25 3.27
   2  0.489  0.523  0.996-  19 2.94  31 2.98  40 3.07  39 3.13  23 3.18  29 3.56
   3  0.005  0.477  0.512-  36 2.94  26 2.98  20 3.07  24 3.12  35 3.19  28 3.56
   4  0.245  0.977  0.240-  17 2.94  43 2.99  33 3.07  37 3.14  18 3.16  41 3.55
   5  0.760  0.023  0.756-  34 2.94  46 2.99  21 3.07  38 3.15  22 3.15  48 3.56
   6  0.476  0.749  0.226-  39 2.96  37 2.97  31 2.97  43 2.97
   7  0.247  0.501  0.753-  19 3.02  36 3.02  40 3.08  20 3.08  44 3.26  42 3.28
   8  0.776  0.251  0.525-  24 2.96  22 2.97  26 2.97  46 2.97
   9  0.250  0.250  1.000-  19 3.11  17 3.11  42 3.11  25 3.11  29 3.14  41 3.14
  10  0.749  0.754  0.999-  21 3.03  31 3.05  48 3.12  47 3.14  23 3.19  27 3.20
  11  0.002  0.247  0.251-  33 3.03  26 3.06  41 3.12  45 3.14  35 3.19  25 3.20
  12  0.000  0.750  0.750-  36 3.11  34 3.11  27 3.11  44 3.11  48 3.14  28 3.14
  13  0.503  0.000  0.497-  22 3.07  37 3.07  30 3.14  32 3.14  38 3.19  18 3.19
  14  0.749  0.500  0.252-  39 3.07  24 3.07  45 3.14  47 3.14  35 3.18  23 3.18
  15  0.502  0.254  0.751-  40 3.03  46 3.06  29 3.13  30 3.14  38 3.20  42 3.20
  16  0.249  0.747  0.499-  20 3.03  43 3.05  28 3.12  32 3.14  18 3.19  44 3.20
  17  0.240  0.005  0.010-   4 2.94   1 3.02   9 3.11
  18  0.252  0.998  0.487-   4 3.16  13 3.19  16 3.19
  19  0.260  0.494  0.991-   2 2.94   7 3.02   9 3.11
  20  0.244  0.508  0.511-  16 3.03   3 3.07   7 3.08
  21  0.761  0.992  0.995-  10 3.03   5 3.07   1 3.08
  22  0.743  0.021  0.508-   8 2.97  13 3.07   5 3.15
  23  0.738  0.503  0.002-   2 3.18  14 3.18  10 3.19
  24  0.760  0.481  0.493-   8 2.96  14 3.07   3 3.12
  25  0.005  0.257  1.000-   9 3.11  11 3.20   1 3.27
  26  0.007  0.243  0.492-   8 2.97   3 2.98  11 3.06
  27  0.000  0.743  0.995-  12 3.11  10 3.20   1 3.26
  28  0.003  0.757  0.503-  16 3.12  12 3.14   3 3.56
  29  0.497  0.244  0.997-  15 3.13   9 3.14   2 3.56
  30  0.491  0.247  0.504-  13 3.14  15 3.14
  31  0.508  0.757  0.995-   6 2.97   2 2.98  10 3.05
  32  0.496  0.753  0.509-  13 3.14  16 3.14
  33  0.005  0.008  0.240-  11 3.03   4 3.07   1 3.08
  34  0.989  0.995  0.760-   5 2.94   1 3.02  12 3.11
  35  0.998  0.498  0.262-  14 3.18   3 3.19  11 3.19
  36  0.010  0.506  0.741-   3 2.94   7 3.02  12 3.11
  37  0.491  0.980  0.257-   6 2.97  13 3.07   4 3.14
  38  0.513  0.003  0.748-   5 3.15  13 3.19  15 3.20
  39  0.508  0.519  0.241-   6 2.96  14 3.07   2 3.13
  40  0.489  0.492  0.756-  15 3.03   2 3.07   7 3.08
  41  0.247  0.256  0.247-  11 3.12   9 3.14   4 3.55
  42  0.250  0.243  0.755-   9 3.11  15 3.20   7 3.28
  43  0.245  0.742  0.258-   6 2.97   4 2.99  16 3.05
  44  0.245  0.758  0.750-  12 3.11  16 3.20   7 3.26
  45  0.754  0.254  0.241-  14 3.14  11 3.14
  46  0.742  0.258  0.756-   8 2.97   5 2.99  15 3.06
  47  0.759  0.747  0.246-  14 3.14  10 3.14
  48  0.753  0.743  0.753-  10 3.12  12 3.14   5 3.56
 
 -----------------------------------------------------------------------------
|                                                                             |
|           W    W    AA    RRRRR   N    N  II  N    N   GGGG   !!!           |
|           W    W   A  A   R    R  NN   N  II  NN   N  G    G  !!!           |
|           W    W  A    A  R    R  N N  N  II  N N  N  G       !!!           |
|           W WW W  AAAAAA  RRRRR   N  N N  II  N  N N  G  GGG   !            |
|           WW  WW  A    A  R   R   N   NN  II  N   NN  G    G                |
|           W    W  A    A  R    R  N    N  II  N    N   GGGG   !!!           |
|                                                                             |
|     The determination of the symmetry of your systems shows a strong        |
|     dependence on the tolerance parameter SYMPREC. This is often the        |
|     result of "noise" in the structural parameters (lattice vectors         |
|     and/or ionic positions). Set NWRITE=3 for more details.                 |
|                                                                             |
 -----------------------------------------------------------------------------

  LATTYP: Found a base centered monoclinic cell.
 ALAT       =    17.9705534624
 B/A-ratio  =     0.9998267181
 C/A-ratio  =     2.1214781482
 COS(beta)  =    -0.9428187636
  
  Lattice vectors:
  
 A1 = (   0.0012100529,   0.0009998160,  12.7059480599)
 A2 = (   0.0008477048,  12.7060503726,   0.0012020146)
 A3 = ( -12.7111128877, -25.4152125127, -25.4154355572)


Analysis of symmetry for initial positions (statically):
=====================================================================
 Subroutine PRICEL returns:
 Original cell was already a primitive cell.
 

 Routine SETGRP: Setting up the symmetry group for a 
 base centered monoclinic supercell.


 Subroutine GETGRP returns: Found  1 space group operations
 (whereof  1 operations were pure point group operations)
 out of a pool of  4 trial point group operations.


The static configuration has the point symmetry C_1 .


Analysis of symmetry for dynamics (positions and initial velocities):
=====================================================================
 Subroutine PRICEL returns:
 Original cell was already a primitive cell.
 

 Routine SETGRP: Setting up the symmetry group for a 
 base centered monoclinic supercell.


 Subroutine GETGRP returns: Found  1 space group operations
 (whereof  1 operations were pure point group operations)
 out of a pool of  4 trial point group operations.


The dynamic configuration has the point symmetry C_1 .


 Subroutine INISYM returns: Found  1 space group operations
 (whereof  1 operations are pure point group operations),
 and found     1 'primitive' translations


----------------------------------------------------------------------------------------

                                     Primitive cell                                     

  volume of cell :    2051.4483

  direct lattice vectors                    reciprocal lattice vectors
    12.706997372  0.001112135  0.001135408     0.078696799 -0.000005250 -0.000007494
     0.000847705 12.706050373  0.001202015    -0.000006888  0.078702664 -0.000006192
     0.001210053  0.000999816 12.705948060    -0.000007032 -0.000007445  0.078703298

  length of vectors
    12.706997472 12.706050458 12.705948157     0.078696799  0.078702665  0.078703299

  position of ions in fractional coordinates (direct lattice)
     0.002588597  0.999931586  0.997605399
     0.489052680  0.523313702  0.995552576
     0.004757250  0.476718196  0.511738710
     0.244786561  0.976891774  0.239924550
     0.759914460  0.023472969  0.755745774
     0.475869474  0.749007538  0.225647501
     0.247397817  0.500994087  0.753195231
     0.775534232  0.251090845  0.524559995
     0.249929833  0.249808360  0.999958009
     0.748673392  0.753736885  0.999005765
     0.001554729  0.246601859  0.251409080
     0.000053047  0.750272940  0.750497007
     0.502721904  0.000215259  0.497468289
     0.748565820  0.500107980  0.251735087
     0.501650375  0.253751075  0.751493983
     0.248781875  0.746739040  0.498538319
     0.239864015  0.005382409  0.010184570
     0.252203900  0.997789356  0.487400308
     0.259527384  0.494267460  0.990630784
     0.244066480  0.508316731  0.511238023
     0.760587407  0.992156401  0.995330598
     0.743010332  0.020592509  0.508246119
     0.738181147  0.502543863  0.001800072
     0.760095016  0.481206601  0.492624455
     0.005117622  0.257165127  0.999653978
     0.006504298  0.242686079  0.491795796
     0.000405725  0.743031770  0.995382426
     0.003123430  0.756804416  0.503490612
     0.496946764  0.243508610  0.997238093
     0.491152160  0.246853847  0.504429493
     0.508352061  0.757436425  0.994500503
     0.495920991  0.753492336  0.509379647
     0.005174120  0.008119761  0.239607072
     0.989420667  0.994689717  0.760190418
     0.998467220  0.497688506  0.261736147
     0.009870201  0.505867692  0.741231557
     0.491147653  0.979872421  0.257110011
     0.513384888  0.002551967  0.747966680
     0.507700738  0.518971598  0.241042984
     0.489232786  0.492128553  0.756091412
     0.247192451  0.256439142  0.247020971
     0.249959878  0.242851040  0.755138599
     0.244601056  0.742448993  0.258258822
     0.244959611  0.757709826  0.750370759
     0.754447340  0.253572276  0.241444398
     0.742008551  0.257884340  0.755598545
     0.759133729  0.746711703  0.246048720
     0.753079463  0.743339069  0.753335744

  ion indices of the primitive-cell ions
   primitive index   ion index
                 1           1
                 2           2
                 3           3
                 4           4
                 5           5
                 6           6
                 7           7
                 8           8
                 9           9
                10          10
                11          11
                12          12
                13          13
                14          14
                15          15
                16          16
                17          17
                18          18
                19          19
                20          20
                21          21
                22          22
                23          23
                24          24
                25          25
                26          26
                27          27
                28          28
                29          29
                30          30
                31          31
                32          32
                33          33
                34          34
                35          35
                36          36
                37          37
                38          38
                39          39
                40          40
                41          41
                42          42
                43          43
                44          44
                45          45
                46          46
                47          47
                48          48

----------------------------------------------------------------------------------------

 
 
 KPOINTS: agbii                                   

Automatic generation of k-mesh.
Space group operators:
 irot       det(A)        alpha          n_x          n_y          n_z        tau_x        tau_y        tau_z
    1     1.000000     0.000000     1.000000     0.000000     0.000000     0.000000     0.000000     0.000000
 TETIRR: Found    192 inequivalent tetrahedra from      384
 
 Subroutine IBZKPT returns following result:
 ===========================================
 
 Found     36 irreducible k-points:
 
 Following reciprocal coordinates:
            Coordinates               Weight
  0.000000  0.000000  0.000000      1.000000
  0.250000  0.000000  0.000000      2.000000
  0.500000 -0.000000 -0.000000      1.000000
 -0.000000  0.250000  0.000000      2.000000
  0.000000  0.000000 -0.250000      2.000000
  0.250000  0.250000 -0.000000      2.000000
 -0.250000  0.000000 -0.250000      2.000000
  0.500000  0.250000  0.000000      2.000000
  0.500000  0.000000 -0.250000      2.000000
 -0.250000  0.250000 -0.000000      2.000000
  0.250000  0.000000 -0.250000      2.000000
 -0.000000  0.500000  0.000000      1.000000
 -0.000000 -0.000000  0.500000      1.000000
  0.250000  0.500000 -0.000000      2.000000
 -0.250000  0.000000  0.500000      2.000000
  0.500000  0.500000  0.000000      1.000000
  0.500000 -0.000000  0.500000      1.000000
 -0.000000  0.250000  0.250000      2.000000
  0.250000  0.250000  0.250000      2.000000
  0.500000  0.250000  0.250000      2.000000
 -0.250000  0.250000  0.250000      2.000000
 -0.000000  0.500000  0.250000      2.000000
 -0.000000 -0.250000  0.500000      2.000000
  0.250000  0.500000  0.250000      2.000000
 -0.250000 -0.250000  0.500000      2.000000
  0.500000  0.500000  0.250000      2.000000
  0.500000 -0.250000  0.500000      2.000000
 -0.250000  0.500000  0.250000      2.000000
  0.250000 -0.250000  0.500000      2.000000
 -0.000000 -0.250000  0.250000      2.000000
  0.250000 -0.250000  0.250000      2.000000
 -0.250000 -0.250000  0.250000      2.000000
  0.500000 -0.250000  0.250000      2.000000
 -0.000000  0.500000  0.500000      1.000000
  0.250000  0.500000  0.500000      2.000000
  0.500000  0.500000  0.500000      1.000000
 
 Following cartesian coordinates:
            Coordinates               Weight
  0.000000  0.000000  0.000000      1.000000
  0.019674 -0.000001 -0.000002      2.000000
  0.039348 -0.000003 -0.000004      1.000000
 -0.000002  0.019676 -0.000002      2.000000
  0.000002  0.000002 -0.019676      2.000000
  0.019672  0.019674 -0.000003      2.000000
 -0.019672  0.000003 -0.019674      2.000000
  0.039347  0.019673 -0.000005      2.000000
  0.039350 -0.000001 -0.019680      2.000000
 -0.019676  0.019677  0.000000      2.000000
  0.019676  0.000001 -0.019678      2.000000
 -0.000003  0.039351 -0.000003      1.000000
 -0.000004 -0.000004  0.039352      1.000000
  0.019671  0.039350 -0.000005      2.000000
 -0.019678 -0.000002  0.039354      2.000000
  0.039345  0.039349 -0.000007      1.000000
  0.039345 -0.000006  0.039348      1.000000
 -0.000003  0.019674  0.019674      2.000000
  0.019671  0.019672  0.019672      2.000000
  0.039345  0.019671  0.019671      2.000000
 -0.019678  0.019675  0.019676      2.000000
 -0.000005  0.039349  0.019673      2.000000
 -0.000002 -0.019679  0.039353      2.000000
  0.019669  0.039348  0.019671      2.000000
 -0.019676 -0.019678  0.039355      2.000000
  0.039343  0.039347  0.019669      2.000000
  0.039347 -0.019682  0.039349      2.000000
 -0.019679  0.039351  0.019675      2.000000
  0.019672 -0.019681  0.039351      2.000000
 -0.000000 -0.019678  0.019677      2.000000
  0.019674 -0.019679  0.019675      2.000000
 -0.019674 -0.019676  0.019679      2.000000
  0.039348 -0.019680  0.019674      2.000000
 -0.000007  0.039348  0.039349      1.000000
  0.019667  0.039346  0.039347      2.000000
  0.039341  0.039345  0.039345      1.000000
 


--------------------------------------------------------------------------------------------------------




 Dimension of arrays:
   k-points           NKPTS =     36   k-points in BZ     NKDIM =     36   number of bands    NBANDS=    211
   number of dos      NEDOS =   3000   number of ions     NIONS =     48
   non local maximal  LDIM  =      6   non local SUM 2l+1 LMDIM =     18
   total plane-waves  NPLWV = 125000
   max r-space proj   IRMAX =      1   max aug-charges    IRDMAX=   6003
   dimension x,y,z NGX =    50 NGY =   50 NGZ =   50
   dimension x,y,z NGXF=   100 NGYF=  100 NGZF=  100
   support grid    NGXF=   100 NGYF=  100 NGZF=  100
   ions per type =               8   8  32
   NGX,Y,Z   is equivalent  to a cutoff of   6.54,  6.54,  6.54 a.u.
   NGXF,Y,Z  is equivalent  to a cutoff of  13.08, 13.08, 13.08 a.u.

 SYSTEM =  unknown system                          
 POSCAR =  Generation Seed Number                  

 Startparameter for this run:
   NWRITE =      2    write-flag & timer
   PREC   = normal    normal or accurate (medium, high low for compatibility)
   ISTART =      1    job   : 0-new  1-cont  2-samecut
   ICHARG =      1    charge: 1-file 2-atom 10-const
   ISPIN  =      1    spin polarized calculation?
   LNONCOLLINEAR =      F non collinear calculations
   LSORBIT =      F    spin-orbit coupling
   INIWAV =      1    electr: 0-lowe 1-rand  2-diag
   LASPH  =      F    aspherical Exc in radial PAW
   METAGGA=      F    non-selfconsistent MetaGGA calc.

 Electronic Relaxation 1
   ENCUT  =  250.0 eV  18.37 Ry    4.29 a.u.  16.38 16.38 16.38*2*pi/ulx,y,z
   ENINI  =  250.0     initial cutoff
   ENAUG  =  412.5 eV  augmentation charge cutoff
   NELM   =     60;   NELMIN=  2; NELMDL=  0     # of ELM steps 
   EDIFF  = 0.1E-05   stopping-criterion for ELM
   LREAL  =      F    real-space projection
   NLSPLINE    = F    spline interpolate recip. space projectors
   LCOMPAT=      F    compatible to vasp.4.4
   GGA_COMPAT  = T    GGA compatible to vasp.4.4-vasp.4.6
   LMAXPAW     = -100 max onsite density
   LMAXMIX     =    4 max onsite mixed and CHGCAR
   VOSKOWN=      0    Vosko Wilk Nusair interpolation
   ROPT   =    0.00000   0.00000   0.00000
 Ionic relaxation
   EDIFFG = -.1E-01   stopping-criterion for IOM
   NSW    =      0    number of steps for IOM
   NBLOCK =      1;   KBLOCK =      1    inner block; outer block 
   IBRION =     -1    ionic relax: 0-MD 1-quasi-New 2-CG
   NFREE  =      0    steps in history (QN), initial steepest desc. (CG)
   ISIF   =     -1    stress and relaxation
   IWAVPR =     10    prediction:  0-non 1-charg 2-wave 3-comb
   ISYM   =      2    0-nonsym 1-usesym 2-fastsym
   LCORR  =      T    Harris-Foulkes like correction to forces

   POTIM  = 0.5000    time-step for ionic-motion
   TEIN   =    0.0    initial temperature
   TEBEG  =    0.0;   TEEND  =   0.0 temperature during run
   SMASS  =  -3.00    Nose mass-parameter (am)
   estimated Nose-frequenzy (Omega)   =  0.10E-29 period in steps = 0.13E+47 mass=  -0.369E-26a.u.
   SCALEE = 1.0000    scale energy and forces
   NPACO  =    256;   APACO  = 16.0  distance and # of slots for P.C.
   PSTRESS=    0.0 pullay stress

  Mass of Ions in am
   POMASS = 107.87208.98126.90
  Ionic Valenz
   ZVAL   =  11.00  5.00  7.00
  Atomic Wigner-Seitz radii
   RWIGS  =  -1.00 -1.00 -1.00
  virtual crystal weights 
   VCA    =   1.00  1.00  1.00
   NELECT =     352.0000    total number of electrons
   NUPDOWN=      -1.0000    fix difference up-down

 DOS related values:
   EMIN   =  10.00;   EMAX   =-10.00  energy-range for DOS
   EFERMI =   0.00
   ISMEAR =    -5;   SIGMA  =   0.20  broadening in eV -4-tet -1-fermi 0-gaus

 Electronic relaxation 2 (details)
   IALGO  =     38    algorithm
   LDIAG  =      T    sub-space diagonalisation (order eigenvalues)
   LSUBROT=      F    optimize rotation matrix (better conditioning)
   TURBO    =      0    0=normal 1=particle mesh
   IRESTART =      0    0=no restart 2=restart with 2 vectors
   NREBOOT  =      0    no. of reboots
   NMIN     =      0    reboot dimension
   EREF     =   0.00    reference energy to select bands
   IMIX   =      4    mixing-type and parameters
     AMIX     =   0.40;   BMIX     =  1.00
     AMIX_MAG =   1.60;   BMIX_MAG =  1.00
     AMIN     =   0.10
     WC   =   100.;   INIMIX=   1;  MIXPRE=   1;  MAXMIX= -45

 Intra band minimization:
   WEIMIN = 0.0000     energy-eigenvalue tresh-hold
   EBREAK =  0.12E-08  absolut break condition
   DEPER  =   0.30     relativ break condition  

   TIME   =   0.40     timestep for ELM

  volume/ion in A,a.u.               =      42.74       288.41
  Fermi-wavevector in a.u.,A,eV,Ry     =   0.909708  1.719100 11.259764  0.827569
  Thomas-Fermi vector in A             =   2.033785
 
 Write flags
   LWAVE        =      T    write WAVECAR
   LDOWNSAMPLE  =      F    k-point downsampling of WAVECAR
   LCHARG       =      T    write CHGCAR
   LVTOT        =      F    write LOCPOT, total local potential
   LVHAR        =      F    write LOCPOT, Hartree potential only
   LELF         =      F    write electronic localiz. function (ELF)
   LORBIT       =     10    0 simple, 1 ext, 2 COOP (PROOUT), +10 PAW based schemes


 Dipole corrections
   LMONO  =      F    monopole corrections only (constant potential shift)
   LDIPOL =      F    correct potential (dipole corrections)
   IDIPOL =      0    1-x, 2-y, 3-z, 4-all directions 
   EPSILON=  1.0000000 bulk dielectric constant

 Exchange correlation treatment:
   GGA     =    --    GGA type
   LEXCH   =     8    internal setting for exchange type
   VOSKOWN=      0    Vosko Wilk Nusair interpolation
   LHFCALC =     F    Hartree Fock is set to
   LHFONE  =     F    Hartree Fock one center treatment
   AEXX    =    0.0000 exact exchange contribution

 Linear response parameters
   LEPSILON=     F    determine dielectric tensor
   LRPA    =     F    only Hartree local field effects (RPA)
   LNABLA  =     F    use nabla operator in PAW spheres
   LVEL    =     F    velocity operator in full k-point grid
   LINTERFAST=   F  fast interpolation
   KINTER  =     0    interpolate to denser k-point grid
   CSHIFT  =0.1000    complex shift for real part using Kramers Kronig
   OMEGAMAX=  -1.0    maximum frequency
   DEG_THRESHOLD= 0.2000000E-02 threshold for treating states as degnerate
   RTIME   =   -0.100 relaxation time in fs
  (WPLASMAI=    0.000 imaginary part of plasma frequency in eV, 0.658/RTIME)
   DFIELD  = 0.0000000 0.0000000 0.0000000 field for delta impulse in time
 
 Orbital magnetization related:
   ORBITALMAG=     F  switch on orbital magnetization
   LCHIMAG   =     F  perturbation theory with respect to B field
   DQ        =  0.001000  dq finite difference perturbation B field
   LLRAUG    =     F  two centre corrections for induced B field



--------------------------------------------------------------------------------------------------------


 Static calculation
 charge density and potential will be updated during run
 non-spin polarized calculation
 Variant of blocked Davidson
 Davidson routine will perform the subspace rotation
 perform sub-space diagonalisation
    after iterative eigenvector-optimisation
 modified Broyden-mixing scheme, WC =      100.0
 initial mixing is a Kerker type mixing with AMIX =  0.4000 and BMIX =      1.0000
 Hartree-type preconditioning will be used
 using additional bands           35
 reciprocal scheme for non local part
 use partial core corrections
 calculate Harris-corrections to forces 
   (improved forces if not selfconsistent)
 use gradient corrections 
 use of overlap-Matrix (Vanderbilt PP)
 Fermi weights with tetrahedron method with Bloechl corrections


--------------------------------------------------------------------------------------------------------


  energy-cutoff  :      250.00
  volume of cell :     2051.45
      direct lattice vectors                 reciprocal lattice vectors
    12.706997372  0.001112135  0.001135408     0.078696799 -0.000005250 -0.000007494
     0.000847705 12.706050373  0.001202015    -0.000006888  0.078702664 -0.000006192
     0.001210053  0.000999816 12.705948060    -0.000007032 -0.000007445  0.078703298

  length of vectors
    12.706997472 12.706050458 12.705948157     0.078696799  0.078702665  0.078703299


 
 old parameters found on file WAVECAR:
  energy-cutoff  :      250.00
  volume of cell :     2051.45
      direct lattice vectors                 reciprocal lattice vectors
    12.706997372  0.001112135  0.001135408     0.078696799 -0.000005250 -0.000007494
     0.000847705 12.706050373  0.001202015    -0.000006888  0.078702664 -0.000006192
     0.001210053  0.000999816 12.705948060    -0.000007032 -0.000007445  0.078703298

  length of vectors

 
 k-points in units of 2pi/SCALE and weight: agbii                                   
   0.00000000  0.00000000  0.00000000       0.016
   0.01967420 -0.00000131 -0.00000187       0.031
   0.03934840 -0.00000262 -0.00000375       0.016
  -0.00000172  0.01967567 -0.00000155       0.031
   0.00000176  0.00000186 -0.01967582       0.031
   0.01967248  0.01967435 -0.00000342       0.031
  -0.01967244  0.00000317 -0.01967395       0.031
   0.03934668  0.01967304 -0.00000530       0.031
   0.03935016 -0.00000076 -0.01967957       0.031
  -0.01967592  0.01967698  0.00000033       0.031
   0.01967596  0.00000055 -0.01967770       0.031
  -0.00000344  0.03935133 -0.00000310       0.016
  -0.00000352 -0.00000372  0.03935165       0.016
   0.01967076  0.03935002 -0.00000497       0.031
  -0.01967772 -0.00000241  0.03935352       0.031
   0.03934496  0.03934871 -0.00000684       0.016
   0.03934488 -0.00000635  0.03934790       0.016
  -0.00000348  0.01967380  0.01967428       0.031
   0.01967072  0.01967249  0.01967240       0.031
   0.03934492  0.01967118  0.01967053       0.031
  -0.01967768  0.01967512  0.01967615       0.031
  -0.00000520  0.03934947  0.01967273       0.031
  -0.00000179 -0.01967939  0.03935320       0.031
   0.01966900  0.03934816  0.01967085       0.031
  -0.01967599 -0.01967808  0.03935507       0.031
   0.03934320  0.03934685  0.01966898       0.031
   0.03934661 -0.01968201  0.03934945       0.031
  -0.01967940  0.03935078  0.01967460       0.031
   0.01967241 -0.01968070  0.03935132       0.031
  -0.00000004 -0.01967753  0.01967737       0.031
   0.01967416 -0.01967884  0.01967550       0.031
  -0.01967424 -0.01967621  0.01967925       0.031
   0.03934836 -0.01968015  0.01967363       0.031
  -0.00000696  0.03934761  0.03934855       0.016
   0.01966724  0.03934630  0.03934668       0.031
   0.03934144  0.03934498  0.03934481       0.016
 
 k-points in reciprocal lattice and weights: agbii                                   
   0.00000000  0.00000000  0.00000000       0.016
   0.25000000  0.00000000  0.00000000       0.031
   0.50000000 -0.00000000 -0.00000000       0.016
  -0.00000000  0.25000000  0.00000000       0.031
   0.00000000  0.00000000 -0.25000000       0.031
   0.25000000  0.25000000 -0.00000000       0.031
  -0.25000000  0.00000000 -0.25000000       0.031
   0.50000000  0.25000000  0.00000000       0.031
   0.50000000  0.00000000 -0.25000000       0.031
  -0.25000000  0.25000000 -0.00000000       0.031
   0.25000000  0.00000000 -0.25000000       0.031
  -0.00000000  0.50000000  0.00000000       0.016
  -0.00000000 -0.00000000  0.50000000       0.016
   0.25000000  0.50000000 -0.00000000       0.031
  -0.25000000  0.00000000  0.50000000       0.031
   0.50000000  0.50000000  0.00000000       0.016
   0.50000000 -0.00000000  0.50000000       0.016
  -0.00000000  0.25000000  0.25000000       0.031
   0.25000000  0.25000000  0.25000000       0.031
   0.50000000  0.25000000  0.25000000       0.031
  -0.25000000  0.25000000  0.25000000       0.031
  -0.00000000  0.50000000  0.25000000       0.031
  -0.00000000 -0.25000000  0.50000000       0.031
   0.25000000  0.50000000  0.25000000       0.031
  -0.25000000 -0.25000000  0.50000000       0.031
   0.50000000  0.50000000  0.25000000       0.031
   0.50000000 -0.25000000  0.50000000       0.031
  -0.25000000  0.50000000  0.25000000       0.031
   0.25000000 -0.25000000  0.50000000       0.031
  -0.00000000 -0.25000000  0.25000000       0.031
   0.25000000 -0.25000000  0.25000000       0.031
  -0.25000000 -0.25000000  0.25000000       0.031
   0.50000000 -0.25000000  0.25000000       0.031
  -0.00000000  0.50000000  0.50000000       0.016
   0.25000000  0.50000000  0.50000000       0.031
   0.50000000  0.50000000  0.50000000       0.016
 
 position of ions in fractional coordinates (direct lattice) 
   0.00258860  0.99993159  0.99760540
   0.48905268  0.52331370  0.99555258
   0.00475725  0.47671820  0.51173871
   0.24478656  0.97689177  0.23992455
   0.75991446  0.02347297  0.75574577
   0.47586947  0.74900754  0.22564750
   0.24739782  0.50099409  0.75319523
   0.77553423  0.25109084  0.52455999
   0.24992983  0.24980836  0.99995801
   0.74867339  0.75373689  0.99900576
   0.00155473  0.24660186  0.25140908
   0.00005305  0.75027294  0.75049701
   0.50272190  0.00021526  0.49746829
   0.74856582  0.50010798  0.25173509
   0.50165038  0.25375107  0.75149398
   0.24878187  0.74673904  0.49853832
   0.23986401  0.00538241  0.01018457
   0.25220390  0.99778936  0.48740031
   0.25952738  0.49426746  0.99063078
   0.24406648  0.50831673  0.51123802
   0.76058741  0.99215640  0.99533060
   0.74301033  0.02059251  0.50824612
   0.73818115  0.50254386  0.00180007
   0.76009502  0.48120660  0.49262446
   0.00511762  0.25716513  0.99965398
   0.00650430  0.24268608  0.49179580
   0.00040572  0.74303177  0.99538243
   0.00312343  0.75680442  0.50349061
   0.49694676  0.24350861  0.99723809
   0.49115216  0.24685385  0.50442949
   0.50835206  0.75743642  0.99450050
   0.49592099  0.75349234  0.50937965
   0.00517412  0.00811976  0.23960707
   0.98942067  0.99468972  0.76019042
   0.99846722  0.49768851  0.26173615
   0.00987020  0.50586769  0.74123156
   0.49114765  0.97987242  0.25711001
   0.51338489  0.00255197  0.74796668
   0.50770074  0.51897160  0.24104298
   0.48923279  0.49212855  0.75609141
   0.24719245  0.25643914  0.24702097
   0.24995988  0.24285104  0.75513860
   0.24460106  0.74244899  0.25825882
   0.24495961  0.75770983  0.75037076
   0.75444734  0.25357228  0.24144440
   0.74200855  0.25788434  0.75559854
   0.75913373  0.74671170  0.24604872
   0.75307946  0.74333907  0.75333574
 
 position of ions in cartesian coordinates  (Angst):
   0.03494809 12.70618140 12.67672726
   6.21603940  6.65078953 12.65062363
   0.06147371  6.05772235  6.50270389
   3.11162062 12.41294820  3.04992104
   9.65716544  0.29984946  9.60335758
   6.04778013  9.51768235  2.86850605
   3.14501951  6.36668430  9.57094258
   9.85555904  3.19175988  6.66621441
   3.17727949  3.17535534 12.70599857
   9.51523862  9.57885028 12.69507141
   0.02026920  3.13358873  3.19468889
   0.00221822  9.53375619  9.53667789
   6.38868806  0.00379157  6.32137729
   9.51275246  6.35548138  3.19998401
   6.37559446  3.22548319  9.54931810
   3.16250690  9.48887898  6.33558205
   3.04796829  0.06866611  0.12968343
   3.20618991 12.67872961  6.19436871
   3.29943149  6.28146633 12.58779207
   3.10240165  6.45948056  6.49665188
   9.66682764 12.60823024 12.64867504
   9.44206280  0.26298393  6.45861716
   9.38049408  6.38617040  0.02431383
   9.65952940  6.11557317  6.26070218
   0.06645725  3.26855822 12.70186645
   0.08345093  3.08408048  6.24903094
   0.00698988  9.44199475 12.64817100
   0.04094022  9.61650191  6.39823880
   6.31611436  3.09558239 12.67171235
   6.24188886  3.13758798  6.41010932
   6.46147379  9.62558504 12.63755937
   6.30292184  9.57497239  6.47362012
   0.06604435  0.10341542  3.04445065
  12.57432889 12.64043807  9.66125900
  12.68825895  6.32502734  3.32733779
   0.12674637  6.42833245  9.41866893
   6.24215369 12.45111163  3.26856192
   6.52448767  0.03374420  9.50421175
   6.45208355  6.59488489  3.06387990
   6.21801182  6.25431023  9.60800523
   3.14159012  3.25885055  3.13922453
   3.17735913  3.08671053  9.59532753
   3.10908686  9.43412455  3.28259333
   3.11425143  9.62852188  9.53536079
   9.58726748  3.22298257  3.06894139
   9.42983363  3.27827208  9.60174833
   9.64724102  9.48884678  3.12804174
   9.57092047  9.44649438  9.57359340
 


--------------------------------------------------------------------------------------------------------


 k-point   1 :   0.0000 0.0000 0.0000  plane waves:   18349
 k-point   2 :   0.2500 0.0000 0.0000  plane waves:   18465
 k-point   3 :   0.5000-0.0000-0.0000  plane waves:   18464
 k-point   4 :  -0.0000 0.2500 0.0000  plane waves:   18465
 k-point   5 :   0.0000 0.0000-0.2500  plane waves:   18465
 k-point   6 :   0.2500 0.2500-0.0000  plane waves:   18429
 k-point   7 :  -0.2500 0.0000-0.2500  plane waves:   18429
 k-point   8 :   0.5000 0.2500 0.0000  plane waves:   18402
 k-point   9 :   0.5000 0.0000-0.2500  plane waves:   18402
 k-point  10 :  -0.2500 0.2500-0.0000  plane waves:   18429
 k-point  11 :   0.2500 0.0000-0.2500  plane waves:   18429
 k-point  12 :  -0.0000 0.5000 0.0000  plane waves:   18464
 k-point  13 :  -0.0000-0.0000 0.5000  plane waves:   18464
 k-point  14 :   0.2500 0.5000-0.0000  plane waves:   18400
 k-point  15 :  -0.2500 0.0000 0.5000  plane waves:   18406
 k-point  16 :   0.5000 0.5000 0.0000  plane waves:   18400
 k-point  17 :   0.5000-0.0000 0.5000  plane waves:   18400
 k-point  18 :  -0.0000 0.2500 0.2500  plane waves:   18429
 k-point  19 :   0.2500 0.2500 0.2500  plane waves:   18430
 k-point  20 :   0.5000 0.2500 0.2500  plane waves:   18412
 k-point  21 :  -0.2500 0.2500 0.2500  plane waves:   18430
 k-point  22 :  -0.0000 0.5000 0.2500  plane waves:   18404
 k-point  23 :  -0.0000-0.2500 0.5000  plane waves:   18404
 k-point  24 :   0.2500 0.5000 0.2500  plane waves:   18412
 k-point  25 :  -0.2500-0.2500 0.5000  plane waves:   18411
 k-point  26 :   0.5000 0.5000 0.2500  plane waves:   18432
 k-point  27 :   0.5000-0.2500 0.5000  plane waves:   18432
 k-point  28 :  -0.2500 0.5000 0.2500  plane waves:   18409
 k-point  29 :   0.2500-0.2500 0.5000  plane waves:   18409
 k-point  30 :  -0.0000-0.2500 0.2500  plane waves:   18429
 k-point  31 :   0.2500-0.2500 0.2500  plane waves:   18430
 k-point  32 :  -0.2500-0.2500 0.2500  plane waves:   18430
 k-point  33 :   0.5000-0.2500 0.2500  plane waves:   18408
 k-point  34 :  -0.0000 0.5000 0.5000  plane waves:   18400
 k-point  35 :   0.2500 0.5000 0.5000  plane waves:   18432
 k-point  36 :   0.5000 0.5000 0.5000  plane waves:   18336

 maximum and minimum number of plane-waves per node :     18465    18336

 maximum number of plane-waves:     18465
 maximum index in each direction: 
   IXMAX=   16   IYMAX=   16   IZMAX=   16
   IXMIN=  -16   IYMIN=  -16   IZMIN=  -16


 serial   3D FFT for wavefunctions
 parallel 3D FFT for charge:
    minimum data exchange during FFTs selected (reduces bandwidth)


 total amount of memory used by VASP MPI-rank0  2761676. kBytes
=======================================================================

   base      :      30000. kBytes
   nonl-proj :     301348. kBytes
   fftplans  :      34720. kBytes
   grid      :      70000. kBytes
   one-center:        746. kBytes
   wavefun   :    2324862. kBytes
 
     INWAV:  cpu time    4.5574: real time    4.6667
 Broyden mixing: mesh for mixing (old mesh)
   NGX = 33   NGY = 33   NGZ = 33
  (NGX  =100   NGY  =100   NGZ  =100)
  gives a total of  35937 points

 initial charge density was supplied:
 number of electron     352.0000280 magnetization 
 keeping initial charge density in first step


--------------------------------------------------------------------------------------------------------


 Maximum index for augmentation-charges         5636 (set IRDMAX)


--------------------------------------------------------------------------------------------------------


 First call to EWALD:  gamma=   0.139
 Maximum number of real-space cells 3x 3x 3
 Maximum number of reciprocal cells 3x 3x 3

    FEWALD:  cpu time    0.0026: real time    0.0026


--------------------------------------- Iteration      1(   1)  ---------------------------------------


    POTLOK:  cpu time    0.5782: real time    0.5932
    SETDIJ:  cpu time    0.0276: real time    0.0276
     EDDAV:  cpu time   57.9185: real time   57.9209
 BZINTS: Fermi energy:    2.098233;  352.000000 electrons
         Band energy:-0.745676E+03;  BLOECHL correction:    0.000000
       DOS:  cpu time    0.0545: real time    0.0545
    CHARGE:  cpu time    1.2022: real time    1.2023
    MIXING:  cpu time    0.0277: real time    0.0277
    --------------------------------------------
      LOOP:  cpu time   59.8087: real time   59.8261

 eigenvalue-minimisations  : 10744
 total energy-change (2. order) :-0.1199666E+03  (-0.3036733E-06)
 number of electron     352.0000280 magnetization 
 augmentation part      -23.1243219 magnetization 

 Broyden mixing:
  rms(total) = 0.69360E-03    rms(broyden)= 0.69356E-03
  rms(prec ) = 0.80765E-03
  weight for this iteration     100.00

 Free energy of the ion-electron system (eV)
  ---------------------------------------------------
  alpha Z        PSCENC =       227.00954392
  Ewald energy   TEWEN  =    -13916.01204661
  -Hartree energ DENC   =     -6047.24617087
  -exchange      EXHF   =         0.00000000
  -V(xc)+E(xc)   XCENC  =     -1392.25004405
  PAW double counting   =     22652.49969768   -20510.01562031
  entropy T*S    EENTRO =         0.00000000
  eigenvalues    EBANDS =      -745.67572278
  atomic energy  EATOM  =     19611.72375700
  Solvation  Ediel_sol  =         0.00000000
  ---------------------------------------------------
  free energy    TOTEN  =      -119.96660603 eV

  energy without entropy =     -119.96660603  energy(sigma->0) =     -119.96660603


--------------------------------------------------------------------------------------------------------




--------------------------------------- Iteration      1(   2)  ---------------------------------------


    POTLOK:  cpu time    0.5569: real time    0.5571
    SETDIJ:  cpu time    0.0566: real time    0.0566
     EDDAV:  cpu time   48.1215: real time   48.1234
 BZINTS: Fermi energy:    2.098154;  352.000000 electrons
         Band energy:-0.745675E+03;  BLOECHL correction:   -0.000000
       DOS:  cpu time    0.0632: real time    0.0632
    --------------------------------------------
      LOOP:  cpu time   48.7982: real time   48.8002

 eigenvalue-minimisations  :  8216
 total energy-change (2. order) : 0.8851930E-07  (-0.1314216E-06)
 number of electron     352.0000280 magnetization 
 augmentation part      -23.1243219 magnetization 

 Free energy of the ion-electron system (eV)
  ---------------------------------------------------
  alpha Z        PSCENC =       227.00954392
  Ewald energy   TEWEN  =    -13916.01204661
  -Hartree energ DENC   =     -6047.24690351
  -exchange      EXHF   =         0.00000000
  -V(xc)+E(xc)   XCENC  =     -1392.24953202
  PAW double counting   =     22652.06352332   -20509.58019848
  entropy T*S    EENTRO =         0.00000000
  eigenvalues    EBANDS =      -745.67474955
  atomic energy  EATOM  =     19611.72375700
  Solvation  Ediel_sol  =         0.00000000
  ---------------------------------------------------
  free energy    TOTEN  =      -119.96660594 eV

  energy without entropy =     -119.96660594  energy(sigma->0) =     -119.96660594


--------------------------------------------------------------------------------------------------------




 average (electrostatic) potential at core
  the test charge radii are     1.1249  1.4024  1.1875
  (the norm of the test charge is              1.0000)
       1 -74.9635       2 -75.0247       3 -75.0251       4 -75.0205       5 -75.0216
       6 -75.1470       7 -74.9653       8 -75.1474       9 -65.4661      10 -65.4928
      11 -65.4919      12 -65.4672      13 -65.4361      14 -65.4358      15 -65.4933
      16 -65.4925      17 -92.9684      18 -93.1476      19 -92.9685      20 -93.0412
      21 -93.0385      22 -93.0416      23 -93.1484      24 -93.0576      25 -93.2806
      26 -93.1938      27 -93.2817      28 -93.3028      29 -93.3028      30 -93.2878
      31 -93.1934      32 -93.2876      33 -93.0360      34 -92.9697      35 -93.1429
      36 -92.9688      37 -93.0481      38 -93.1531      39 -93.0542      40 -93.0442
      41 -93.3040      42 -93.2776      43 -93.1908      44 -93.2807      45 -93.2923
      46 -93.1895      47 -93.2928      48 -93.3038
 
 
 
 E-fermi :   2.0982     XC(G=0):  -7.8239     alpha+bet : -7.8024


 k-point     1 :       0.0000    0.0000    0.0000
  band No.  band energies     occupation 
      1     -10.8127      2.00000
      2     -10.6815      2.00000
      3     -10.6357      2.00000
      4     -10.5008      2.00000
      5     -10.4491      2.00000
      6     -10.2222      2.00000
      7     -10.1899      2.00000
      8     -10.0088      2.00000
      9      -9.8582      2.00000
     10      -9.8472      2.00000
     11      -9.8339      2.00000
     12      -9.8126      2.00000
     13      -9.8082      2.00000
     14      -9.7749      2.00000
     15      -9.7732      2.00000
     16      -9.7037      2.00000
     17      -9.6943      2.00000
     18      -9.6761      2.00000
     19      -9.6728      2.00000
     20      -9.6715      2.00000
     21      -9.6480      2.00000
     22      -9.6228      2.00000
     23      -9.6175      2.00000
     24      -9.5911      2.00000
     25      -9.5781      2.00000
     26      -9.5695      2.00000
     27      -9.5522      2.00000
     28      -9.5263      2.00000
     29      -9.5185      2.00000
     30      -9.5145      2.00000
     31      -9.5076      2.00000
     32      -9.4746      2.00000
     33      -8.1829      2.00000
     34      -8.0850      2.00000
     35      -8.0726      2.00000
     36      -7.8441      2.00000
     37      -7.8183      2.00000
     38      -7.6107      2.00000
     39      -7.5943      2.00000
     40      -7.5925      2.00000
     41      -1.7899      2.00000
     42      -1.7311      2.00000
     43      -1.6821      2.00000
     44      -1.6739      2.00000
     45      -1.6228      2.00000
     46      -1.5551      2.00000
     47      -1.4930      2.00000
     48      -1.4400      2.00000
     49      -1.4369      2.00000
     50      -1.4014      2.00000
     51      -1.3971      2.00000
     52      -1.3593      2.00000
     53      -1.3237      2.00000
     54      -1.2865      2.00000
     55      -1.2797      2.00000
     56      -1.2447      2.00000
     57      -1.1984      2.00000
     58      -1.1931      2.00000
     59      -1.1214      2.00000
     60      -1.0734      2.00000
     61      -1.0698      2.00000
     62      -1.0281      2.00000
     63      -0.9918      2.00000
     64      -0.9841      2.00000
     65      -0.9783      2.00000
     66      -0.9668      2.00000
     67      -0.9502      2.00000
     68      -0.9460      2.00000
     69      -0.9269      2.00000
     70      -0.8893      2.00000
     71      -0.8855      2.00000
     72      -0.8795      2.00000
     73      -0.8459      2.00000
     74      -0.8181      2.00000
     75      -0.8147      2.00000
     76      -0.7820      2.00000
     77      -0.7788      2.00000
     78      -0.7698      2.00000
     79      -0.7516      2.00000
     80      -0.7032      2.00000
     81      -0.6706      2.00000
     82      -0.6601      2.00000
     83      -0.6222      2.00000
     84      -0.6090      2.00000
     85      -0.5969      2.00000
     86      -0.5793      2.00000
     87      -0.5470      2.00000
     88      -0.5191      2.00000
     89      -0.5068      2.00000
     90      -0.4718      2.00000
     91      -0.4421      2.00000
     92      -0.4332      2.00000
     93      -0.4196      2.00000
     94      -0.3768      2.00000
     95      -0.3652      2.00000
     96      -0.3354      2.00000
     97      -0.3176      2.00000
     98      -0.3120      2.00000
     99      -0.2880      2.00000
    100      -0.2820      2.00000
    101      -0.2504      2.00000
    102      -0.2324      2.00000
    103      -0.2272      2.00000
    104      -0.1938      2.00000
    105      -0.1709      2.00000
    106      -0.1652      2.00000
    107      -0.1388      2.00000
    108      -0.1184      2.00000
    109      -0.0889      2.00000
    110      -0.0787      2.00000
    111      -0.0246      2.00000
    112      -0.0055      2.00000
    113       0.1113      2.00000
    114       0.1589      2.00000
    115       0.2006      2.00000
    116       0.2103      2.00000
    117       0.2139      2.00000
    118       0.2412      2.00000
    119       0.2657      2.00000
    120       0.2785      2.00000
    121       0.2831      2.00000
    122       0.3243      2.00000
    123       0.3887      2.00000
    124       0.4267      2.00000
    125       0.4348      2.00000
    126       0.4459      2.00000
    127       0.5160      2.00000
    128       0.5483      2.00000
    129       0.5542      2.00000
    130       0.5568      2.00000
    131       0.5694      2.00000
    132       0.5818      2.00000
    133       0.6188      2.00000
    134       0.6745      2.00000
    135       0.7266      2.00000
    136       0.7413      2.00000
    137       0.7478      2.00000
    138       0.7479      2.00000
    139       0.7613      2.00000
    140       0.8137      2.00000
    141       0.8143      2.00000
    142       0.8305      2.00000
    143       0.8539      2.00000
    144       0.8728      2.00000
    145       0.8805      2.00000
    146       0.9225      2.00000
    147       0.9725      2.00000
    148       1.0005      2.00000
    149       1.0267      2.00000
    150       1.0606      2.00000
    151       1.0985      2.00000
    152       1.1251      2.00000
    153       1.1366      2.00000
    154       1.1865      2.00000
    155       1.2024      2.00000
    156       1.2081      2.00000
    157       1.2311      2.00000
    158       1.2416      2.00000
    159       1.2783      2.00000
    160       1.3466      2.00000
    161       1.3935      2.00000
    162       1.4378      2.00000
    163       1.5042      2.00000
    164       1.5328      2.00000
    165       1.5780      2.00000
    166       1.5927      2.00000
    167       1.6157      2.00000
    168       1.6417      2.00000
    169       1.7990      2.00000
    170       1.8023      2.00000
    171       1.9176      2.00000
    172       1.9340      2.00000
    173       2.0411      2.00000
    174       2.0548      2.00000
    175       2.0681      2.00000
    176       2.0982      2.00000
    177       3.8762      0.00000
    178       4.0382      0.00000
    179       4.0495      0.00000
    180       4.1622      0.00000
    181       4.1993      0.00000
    182       4.3819      0.00000
    183       4.3826      0.00000
    184       4.4304      0.00000
    185       4.4570      0.00000
    186       4.4741      0.00000
    187       4.5516      0.00000
    188       4.5678      0.00000
    189       4.5949      0.00000
    190       4.5976      0.00000
    191       4.6378      0.00000
    192       4.6462      0.00000
    193       4.6741      0.00000
    194       4.7373      0.00000
    195       4.7659      0.00000
    196       4.7721      0.00000
    197       4.8389      0.00000
    198       4.8679      0.00000
    199       4.8740      0.00000
    200       4.9877      0.00000
    201       5.1140      0.00000
    202       5.3055      0.00000
    203       5.6149      0.00000
    204       5.7536      0.00000
    205       5.9611      0.00000
    206       5.9823      0.00000
    207       5.9956      0.00000
    208       6.0272      0.00000
    209       7.1885      0.00000
    210       7.2912      0.00000
    211       7.3039      0.00000

 k-point     2 :       0.2500    0.0000    0.0000
  band No.  band energies     occupation 
      1     -10.7975      2.00000
      2     -10.6876      2.00000
      3     -10.6565      2.00000
      4     -10.4980      2.00000
      5     -10.4455      2.00000
      6     -10.2214      2.00000
      7     -10.1782      2.00000
      8     -10.0195      2.00000
      9      -9.8626      2.00000
     10      -9.8564      2.00000
     11      -9.8391      2.00000
     12      -9.8140      2.00000
     13      -9.8105      2.00000
     14      -9.7648      2.00000
     15      -9.7530      2.00000
     16      -9.7078      2.00000
     17      -9.6946      2.00000
     18      -9.6815      2.00000
     19      -9.6640      2.00000
     20      -9.6592      2.00000
     21      -9.6540      2.00000
     22      -9.6239      2.00000
     23      -9.6112      2.00000
     24      -9.5979      2.00000
     25      -9.5738      2.00000
     26      -9.5722      2.00000
     27      -9.5474      2.00000
     28      -9.5310      2.00000
     29      -9.5220      2.00000
     30      -9.5157      2.00000
     31      -9.5053      2.00000
     32      -9.4806      2.00000
     33      -8.1882      2.00000
     34      -8.0819      2.00000
     35      -8.0721      2.00000
     36      -7.8430      2.00000
     37      -7.8188      2.00000
     38      -7.6424      2.00000
     39      -7.5911      2.00000
     40      -7.5641      2.00000
     41      -1.7677      2.00000
     42      -1.7141      2.00000
     43      -1.6829      2.00000
     44      -1.6590      2.00000
     45      -1.6171      2.00000
     46      -1.5772      2.00000
     47      -1.5248      2.00000
     48      -1.5100      2.00000
     49      -1.4577      2.00000
     50      -1.4137      2.00000
     51      -1.3610      2.00000
     52      -1.3481      2.00000
     53      -1.3143      2.00000
     54      -1.2813      2.00000
     55      -1.2625      2.00000
     56      -1.2366      2.00000
     57      -1.1901      2.00000
     58      -1.1668      2.00000
     59      -1.1422      2.00000
     60      -1.0950      2.00000
     61      -1.0828      2.00000
     62      -1.0492      2.00000
     63      -1.0136      2.00000
     64      -0.9998      2.00000
     65      -0.9825      2.00000
     66      -0.9643      2.00000
     67      -0.9430      2.00000
     68      -0.9301      2.00000
     69      -0.9093      2.00000
     70      -0.8999      2.00000
     71      -0.8784      2.00000
     72      -0.8688      2.00000
     73      -0.8488      2.00000
     74      -0.8380      2.00000
     75      -0.8026      2.00000
     76      -0.7803      2.00000
     77      -0.7782      2.00000
     78      -0.7738      2.00000
     79      -0.7308      2.00000
     80      -0.7191      2.00000
     81      -0.6726      2.00000
     82      -0.6466      2.00000
     83      -0.6237      2.00000
     84      -0.6124      2.00000
     85      -0.5959      2.00000
     86      -0.5543      2.00000
     87      -0.5465      2.00000
     88      -0.5211      2.00000
     89      -0.4719      2.00000
     90      -0.4584      2.00000
     91      -0.4413      2.00000
     92      -0.4317      2.00000
     93      -0.4047      2.00000
     94      -0.3774      2.00000
     95      -0.3621      2.00000
     96      -0.3502      2.00000
     97      -0.3366      2.00000
     98      -0.3262      2.00000
     99      -0.3050      2.00000
    100      -0.2791      2.00000
    101      -0.2663      2.00000
    102      -0.2486      2.00000
    103      -0.1877      2.00000
    104      -0.1838      2.00000
    105      -0.1741      2.00000
    106      -0.1419      2.00000
    107      -0.1228      2.00000
    108      -0.1200      2.00000
    109      -0.1097      2.00000
    110      -0.0939      2.00000
    111      -0.0613      2.00000
    112      -0.0099      2.00000
    113       0.1158      2.00000
    114       0.1434      2.00000
    115       0.1661      2.00000
    116       0.1821      2.00000
    117       0.2121      2.00000
    118       0.2610      2.00000
    119       0.2781      2.00000
    120       0.2976      2.00000
    121       0.3158      2.00000
    122       0.3697      2.00000
    123       0.3851      2.00000
    124       0.3876      2.00000
    125       0.4485      2.00000
    126       0.4811      2.00000
    127       0.5023      2.00000
    128       0.5391      2.00000
    129       0.5593      2.00000
    130       0.5884      2.00000
    131       0.5990      2.00000
    132       0.6239      2.00000
    133       0.6325      2.00000
    134       0.6594      2.00000
    135       0.6844      2.00000
    136       0.7203      2.00000
    137       0.7336      2.00000
    138       0.7519      2.00000
    139       0.7895      2.00000
    140       0.7963      2.00000
    141       0.8088      2.00000
    142       0.8476      2.00000
    143       0.8523      2.00000
    144       0.8675      2.00000
    145       0.8978      2.00000
    146       0.9326      2.00000
    147       1.0064      2.00000
    148       1.0231      2.00000
    149       1.0272      2.00000
    150       1.0441      2.00000
    151       1.0546      2.00000
    152       1.1153      2.00000
    153       1.1626      2.00000
    154       1.1845      2.00000
    155       1.1896      2.00000
    156       1.1932      2.00000
    157       1.2251      2.00000
    158       1.2490      2.00000
    159       1.2823      2.00000
    160       1.3364      2.00000
    161       1.3919      2.00000
    162       1.4502      2.00000
    163       1.5129      2.00000
    164       1.5261      2.00000
    165       1.5708      2.00000
    166       1.5952      2.00000
    167       1.6420      2.00000
    168       1.6637      2.00000
    169       1.7922      2.00000
    170       1.8065      2.00000
    171       1.8941      2.00000
    172       1.9198      2.00000
    173       2.0101      2.00000
    174       2.0165      2.00000
    175       2.0470      2.00000
    176       2.0584      2.00000
    177       3.9372      0.00000
    178       4.0281      0.00000
    179       4.0721      0.00000
    180       4.1818      0.00000
    181       4.2032      0.00000
    182       4.3383      0.00000
    183       4.3601      0.00000
    184       4.4309      0.00000
    185       4.4613      0.00000
    186       4.4880      0.00000
    187       4.5040      0.00000
    188       4.5427      0.00000
    189       4.6129      0.00000
    190       4.6212      0.00000
    191       4.6356      0.00000
    192       4.6590      0.00000
    193       4.6853      0.00000
    194       4.6915      0.00000
    195       4.7336      0.00000
    196       4.7980      0.00000
    197       4.8197      0.00000
    198       4.8663      0.00000
    199       4.8950      0.00000
    200       4.9669      0.00000
    201       5.2419      0.00000
    202       5.3908      0.00000
    203       5.6256      0.00000
    204       5.7664      0.00000
    205       5.8569      0.00000
    206       5.8756      0.00000
    207       5.9977      0.00000
    208       6.0102      0.00000
    209       7.3018      0.00000
    210       7.3330      0.00000
    211       7.4035      0.00000

 k-point     3 :       0.5000   -0.0000   -0.0000
  band No.  band energies     occupation 
      1     -10.7728      2.00000
      2     -10.7132      2.00000
      3     -10.6654      2.00000
      4     -10.4964      2.00000
      5     -10.4422      2.00000
      6     -10.2219      2.00000
      7     -10.1648      2.00000
      8     -10.0297      2.00000
      9      -9.8673      2.00000
     10      -9.8643      2.00000
     11      -9.8426      2.00000
     12      -9.8153      2.00000
     13      -9.8129      2.00000
     14      -9.7534      2.00000
     15      -9.7343      2.00000
     16      -9.7108      2.00000
     17      -9.7018      2.00000
     18      -9.6765      2.00000
     19      -9.6654      2.00000
     20      -9.6628      2.00000
     21      -9.6362      2.00000
     22      -9.6312      2.00000
     23      -9.6076      2.00000
     24      -9.5865      2.00000
     25      -9.5819      2.00000
     26      -9.5776      2.00000
     27      -9.5450      2.00000
     28      -9.5398      2.00000
     29      -9.5176      2.00000
     30      -9.5170      2.00000
     31      -9.4969      2.00000
     32      -9.4943      2.00000
     33      -8.1935      2.00000
     34      -8.0805      2.00000
     35      -8.0696      2.00000
     36      -7.8426      2.00000
     37      -7.8190      2.00000
     38      -7.6594      2.00000
     39      -7.5886      2.00000
     40      -7.5498      2.00000
     41      -1.7296      2.00000
     42      -1.7106      2.00000
     43      -1.6626      2.00000
     44      -1.6406      2.00000
     45      -1.6277      2.00000
     46      -1.6088      2.00000
     47      -1.5580      2.00000
     48      -1.5365      2.00000
     49      -1.4839      2.00000
     50      -1.4125      2.00000
     51      -1.3851      2.00000
     52      -1.3476      2.00000
     53      -1.2748      2.00000
     54      -1.2732      2.00000
     55      -1.2521      2.00000
     56      -1.2169      2.00000
     57      -1.2052      2.00000
     58      -1.1547      2.00000
     59      -1.1468      2.00000
     60      -1.1234      2.00000
     61      -1.1155      2.00000
     62      -1.0676      2.00000
     63      -1.0106      2.00000
     64      -0.9835      2.00000
     65      -0.9797      2.00000
     66      -0.9569      2.00000
     67      -0.9307      2.00000
     68      -0.9226      2.00000
     69      -0.9074      2.00000
     70      -0.9032      2.00000
     71      -0.8928      2.00000
     72      -0.8681      2.00000
     73      -0.8297      2.00000
     74      -0.8219      2.00000
     75      -0.8094      2.00000
     76      -0.7987      2.00000
     77      -0.7728      2.00000
     78      -0.7723      2.00000
     79      -0.7486      2.00000
     80      -0.7312      2.00000
     81      -0.6617      2.00000
     82      -0.6372      2.00000
     83      -0.6228      2.00000
     84      -0.5984      2.00000
     85      -0.5945      2.00000
     86      -0.5592      2.00000
     87      -0.5338      2.00000
     88      -0.4808      2.00000
     89      -0.4721      2.00000
     90      -0.4662      2.00000
     91      -0.4516      2.00000
     92      -0.4322      2.00000
     93      -0.3907      2.00000
     94      -0.3850      2.00000
     95      -0.3690      2.00000
     96      -0.3483      2.00000
     97      -0.3197      2.00000
     98      -0.3141      2.00000
     99      -0.3047      2.00000
    100      -0.2958      2.00000
    101      -0.2728      2.00000
    102      -0.2679      2.00000
    103      -0.1946      2.00000
    104      -0.1697      2.00000
    105      -0.1530      2.00000
    106      -0.1395      2.00000
    107      -0.1276      2.00000
    108      -0.1253      2.00000
    109      -0.1095      2.00000
    110      -0.0835      2.00000
    111      -0.0805      2.00000
    112      -0.0153      2.00000
    113       0.0744      2.00000
    114       0.0854      2.00000
    115       0.1331      2.00000
    116       0.1760      2.00000
    117       0.2119      2.00000
    118       0.2401      2.00000
    119       0.2947      2.00000
    120       0.3249      2.00000
    121       0.3481      2.00000
    122       0.4199      2.00000
    123       0.4340      2.00000
    124       0.4533      2.00000
    125       0.4799      2.00000
    126       0.4937      2.00000
    127       0.5219      2.00000
    128       0.5447      2.00000
    129       0.5635      2.00000
    130       0.5749      2.00000
    131       0.5850      2.00000
    132       0.6056      2.00000
    133       0.6117      2.00000
    134       0.6714      2.00000
    135       0.6752      2.00000
    136       0.6820      2.00000
    137       0.7440      2.00000
    138       0.7584      2.00000
    139       0.7792      2.00000
    140       0.7922      2.00000
    141       0.8026      2.00000
    142       0.8321      2.00000
    143       0.8532      2.00000
    144       0.9066      2.00000
    145       0.9128      2.00000
    146       0.9523      2.00000
    147       0.9695      2.00000
    148       1.0049      2.00000
    149       1.0385      2.00000
    150       1.0696      2.00000
    151       1.1004      2.00000
    152       1.1010      2.00000
    153       1.1242      2.00000
    154       1.1274      2.00000
    155       1.1875      2.00000
    156       1.2000      2.00000
    157       1.2267      2.00000
    158       1.2718      2.00000
    159       1.2884      2.00000
    160       1.3154      2.00000
    161       1.4299      2.00000
    162       1.4498      2.00000
    163       1.4940      2.00000
    164       1.5142      2.00000
    165       1.6253      2.00000
    166       1.6284      2.00000
    167       1.6472      2.00000
[...]
    143       0.8866      2.00000
    144       0.8888      2.00000
    145       0.9560      2.00000
    146       0.9580      2.00000
    147       1.0511      2.00000
    148       1.0531      2.00000
    149       1.0765      2.00000
    150       1.0787      2.00000
    151       1.1119      2.00000
    152       1.1135      2.00000
    153       1.1346      2.00000
    154       1.1356      2.00000
    155       1.2008      2.00000
    156       1.2011      2.00000
    157       1.2477      2.00000
    158       1.2491      2.00000
    159       1.3034      2.00000
    160       1.3041      2.00000
    161       1.4897      2.00000
    162       1.4917      2.00000
    163       1.6188      2.00000
    164       1.6218      2.00000
    165       1.6308      2.00000
    166       1.6317      2.00000
    167       1.7216      2.00000
    168       1.7242      2.00000
    169       1.7922      2.00000
    170       1.7941      2.00000
    171       1.8731      2.00000
    172       1.8798      2.00000
    173       1.9046      2.00000
    174       1.9096      2.00000
    175       2.0229      2.00000
    176       2.0258      2.00000
    177       3.8460      0.00000
    178       3.8496      0.00000
    179       4.0289      0.00000
    180       4.0334      0.00000
    181       4.1397      0.00000
    182       4.1406      0.00000
    183       4.2911      0.00000
    184       4.2919      0.00000
    185       4.3604      0.00000
    186       4.3624      0.00000
    187       4.4642      0.00000
    188       4.4661      0.00000
    189       4.6406      0.00000
    190       4.6437      0.00000
    191       4.7161      0.00000
    192       4.7170      0.00000
    193       4.8073      0.00000
    194       4.8102      0.00000
    195       4.8586      0.00000
    196       4.8598      0.00000
    197       4.9250      0.00000
    198       4.9273      0.00000
    199       5.0518      0.00000
    200       5.0555      0.00000
    201       5.5962      0.00000
    202       5.5996      0.00000
    203       5.6365      0.00000
    204       5.6383      0.00000
    205       5.6704      0.00000
    206       5.6733      0.00000
    207       5.8262      0.00000
    208       5.8275      0.00000
    209       7.3577      0.00000
    210       7.3599      0.00000
    211       7.5330      0.00000

 k-point    36 :       0.5000    0.5000    0.5000
  band No.  band energies     occupation 
      1     -10.7368      2.00000
      2     -10.7348      2.00000
      3     -10.6084      2.00000
      4     -10.6070      2.00000
      5     -10.3520      2.00000
      6     -10.3509      2.00000
      7     -10.0835      2.00000
      8     -10.0827      2.00000
      9      -9.8741      2.00000
     10      -9.8718      2.00000
     11      -9.7821      2.00000
     12      -9.7812      2.00000
     13      -9.7563      2.00000
     14      -9.7558      2.00000
     15      -9.7149      2.00000
     16      -9.7140      2.00000
     17      -9.6921      2.00000
     18      -9.6915      2.00000
     19      -9.6687      2.00000
     20      -9.6656      2.00000
     21      -9.6631      2.00000
     22      -9.6620      2.00000
     23      -9.5998      2.00000
     24      -9.5986      2.00000
     25      -9.5781      2.00000
     26      -9.5779      2.00000
     27      -9.5509      2.00000
     28      -9.5479      2.00000
     29      -9.5161      2.00000
     30      -9.5145      2.00000
     31      -9.5064      2.00000
     32      -9.5024      2.00000
     33      -8.1606      2.00000
     34      -8.1585      2.00000
     35      -7.9669      2.00000
     36      -7.9655      2.00000
     37      -7.7271      2.00000
     38      -7.7270      2.00000
     39      -7.5503      2.00000
     40      -7.5497      2.00000
     41      -1.7493      2.00000
     42      -1.7488      2.00000
     43      -1.6466      2.00000
     44      -1.6450      2.00000
     45      -1.6012      2.00000
     46      -1.5963      2.00000
     47      -1.5109      2.00000
     48      -1.5073      2.00000
     49      -1.4529      2.00000
     50      -1.4522      2.00000
     51      -1.4253      2.00000
     52      -1.4233      2.00000
     53      -1.3447      2.00000
     54      -1.3435      2.00000
     55      -1.2528      2.00000
     56      -1.2494      2.00000
     57      -1.2351      2.00000
     58      -1.2291      2.00000
     59      -1.1076      2.00000
     60      -1.1040      2.00000
     61      -1.0104      2.00000
     62      -1.0070      2.00000
     63      -0.9772      2.00000
     64      -0.9691      2.00000
     65      -0.9593      2.00000
     66      -0.9579      2.00000
     67      -0.9327      2.00000
     68      -0.9298      2.00000
     69      -0.8816      2.00000
     70      -0.8759      2.00000
     71      -0.8488      2.00000
     72      -0.8456      2.00000
     73      -0.8330      2.00000
     74      -0.8314      2.00000
     75      -0.8069      2.00000
     76      -0.8064      2.00000
     77      -0.7986      2.00000
     78      -0.7901      2.00000
     79      -0.7092      2.00000
     80      -0.7087      2.00000
     81      -0.6590      2.00000
     82      -0.6569      2.00000
     83      -0.5922      2.00000
     84      -0.5881      2.00000
     85      -0.5561      2.00000
     86      -0.5547      2.00000
     87      -0.5147      2.00000
     88      -0.5141      2.00000
     89      -0.4805      2.00000
     90      -0.4797      2.00000
     91      -0.4414      2.00000
     92      -0.4406      2.00000
     93      -0.3649      2.00000
     94      -0.3625      2.00000
     95      -0.3465      2.00000
     96      -0.3454      2.00000
     97      -0.3203      2.00000
     98      -0.3195      2.00000
     99      -0.2761      2.00000
    100      -0.2749      2.00000
    101      -0.2733      2.00000
    102      -0.2682      2.00000
    103      -0.2203      2.00000
    104      -0.2177      2.00000
    105      -0.1747      2.00000
    106      -0.1735      2.00000
    107      -0.1482      2.00000
    108      -0.1450      2.00000
    109      -0.1064      2.00000
    110      -0.1058      2.00000
    111      -0.0444      2.00000
    112      -0.0425      2.00000
    113       0.0693      2.00000
    114       0.0697      2.00000
    115       0.1779      2.00000
    116       0.1789      2.00000
    117       0.2647      2.00000
    118       0.2653      2.00000
    119       0.3196      2.00000
    120       0.3227      2.00000
    121       0.3992      2.00000
    122       0.4000      2.00000
    123       0.4005      2.00000
    124       0.4020      2.00000
    125       0.4499      2.00000
    126       0.4530      2.00000
    127       0.4846      2.00000
    128       0.4881      2.00000
    129       0.5456      2.00000
    130       0.5498      2.00000
    131       0.5848      2.00000
    132       0.5854      2.00000
    133       0.6072      2.00000
    134       0.6086      2.00000
    135       0.6385      2.00000
    136       0.6388      2.00000
    137       0.7056      2.00000
    138       0.7075      2.00000
    139       0.7355      2.00000
    140       0.7369      2.00000
    141       0.7729      2.00000
    142       0.7740      2.00000
    143       0.9119      2.00000
    144       0.9148      2.00000
    145       0.9449      2.00000
    146       0.9461      2.00000
    147       1.0697      2.00000
    148       1.0722      2.00000
    149       1.0899      2.00000
    150       1.0931      2.00000
    151       1.1123      2.00000
    152       1.1130      2.00000
    153       1.1266      2.00000
    154       1.1274      2.00000
    155       1.2103      2.00000
    156       1.2110      2.00000
    157       1.2431      2.00000
    158       1.2445      2.00000
    159       1.3059      2.00000
    160       1.3067      2.00000
    161       1.5228      2.00000
    162       1.5242      2.00000
    163       1.6217      2.00000
    164       1.6243      2.00000
    165       1.6270      2.00000
    166       1.6278      2.00000
    167       1.7381      2.00000
    168       1.7403      2.00000
    169       1.8122      2.00000
    170       1.8128      2.00000
    171       1.8759      2.00000
    172       1.8838      2.00000
    173       1.9008      2.00000
    174       1.9052      2.00000
    175       2.0606      2.00000
    176       2.0640      2.00000
    177       3.7458      0.00000
    178       3.7490      0.00000
    179       3.9512      0.00000
    180       3.9553      0.00000
    181       4.0797      0.00000
    182       4.0799      0.00000
    183       4.2649      0.00000
    184       4.2652      0.00000
    185       4.3542      0.00000
    186       4.3560      0.00000
    187       4.4607      0.00000
    188       4.4632      0.00000
    189       4.6548      0.00000
    190       4.6590      0.00000
    191       4.7413      0.00000
    192       4.7418      0.00000
    193       4.8564      0.00000
    194       4.8593      0.00000
    195       4.8894      0.00000
    196       4.8897      0.00000
    197       4.9933      0.00000
    198       4.9939      0.00000
    199       5.0666      0.00000
    200       5.0719      0.00000
    201       5.5805      0.00000
    202       5.5844      0.00000
    203       5.6088      0.00000
    204       5.6112      0.00000
    205       5.6383      0.00000
    206       5.6412      0.00000
    207       5.8395      0.00000
    208       5.8412      0.00000
    209       7.2757      0.00000
    210       7.2775      0.00000
    211       7.5447      0.00000


--------------------------------------------------------------------------------------------------------


 soft charge-density along one line, spin component           1
         0         1         2         3         4         5         6         7         8         9
 total charge-density along one line
 
 pseudopotential strength for first ion, spin component:           1
 -6.408  -0.000  -0.000   0.000   0.000  -6.544  -0.000  -0.000
 -0.000  -6.408   0.001   0.000   0.000  -0.000  -6.544   0.001
 -0.000   0.001  -6.391  -0.000  -0.006  -0.000   0.001  -6.528
  0.000   0.000  -0.000  -6.397  -0.000   0.000   0.000  -0.000
  0.000   0.000  -0.006  -0.000  -6.398   0.000   0.000  -0.006
 -6.544  -0.000  -0.000   0.000   0.000  -6.650  -0.000  -0.000
 -0.000  -6.544   0.001   0.000   0.000  -0.000  -6.650   0.001
 -0.000   0.001  -6.528  -0.000  -0.006  -0.000   0.001  -6.635
  0.000   0.000  -0.000  -6.534  -0.000   0.000   0.000  -0.000
  0.000   0.000  -0.006  -0.000  -6.535   0.000   0.000  -0.006
  0.000   0.000   0.000   0.001   0.001   0.000   0.000   0.000
  0.000   0.000   0.001   0.001   0.001   0.000   0.000   0.001
 -0.002   0.002  -0.000   0.000  -0.000  -0.002   0.002  -0.000
  0.000   0.000   0.002  -0.002  -0.000   0.000   0.000   0.002
  0.000   0.000   0.001   0.002  -0.002   0.000   0.000   0.001
 -0.002   0.002  -0.000   0.000  -0.000  -0.002   0.002  -0.000
  0.000   0.000   0.002  -0.002  -0.000   0.000   0.000   0.002
  0.000   0.000   0.001   0.002  -0.002   0.000   0.000   0.001
 total augmentation occupancy for first ion, spin component:           1
  2.207   0.002  -0.048   0.009   0.062  -0.229  -0.006   0.048  -0.011  -0.054  -0.053   0.010  -0.001  -0.000   0.002  -0.001
  0.002   2.208   0.079   0.009  -0.009  -0.006  -0.229  -0.072  -0.011   0.014  -0.053   0.010   0.001  -0.003   0.000   0.001
 -0.048   0.079   4.331   0.032  -0.360   0.048  -0.072  -2.150  -0.033   0.344  -0.187   0.022  -0.004   0.033   0.024   0.000
  0.009   0.009   0.032   2.274   0.047  -0.011  -0.011  -0.033  -0.305  -0.049  -0.077   0.017  -0.000   0.014  -0.014   0.000
  0.062  -0.009  -0.360   0.047   3.919  -0.054   0.014   0.344  -0.049  -1.757  -0.329   0.040   0.000  -0.008  -0.025  -0.000
 -0.229  -0.006   0.048  -0.011  -0.054   0.232   0.010  -0.048   0.012   0.047   0.048  -0.010   0.002   0.000  -0.002  -0.000
 -0.006  -0.229  -0.072  -0.011   0.014   0.010   0.231   0.066   0.013  -0.017   0.048  -0.010  -0.002   0.002  -0.000   0.000
  0.048  -0.072  -2.150  -0.033   0.344  -0.048   0.066   1.974   0.033  -0.329   0.170  -0.030   0.003  -0.031  -0.022  -0.000
 -0.011  -0.011  -0.033  -0.305  -0.049   0.012   0.013   0.033   0.317   0.051   0.067  -0.016   0.000  -0.011   0.011  -0.000
 -0.054   0.014   0.344  -0.049  -1.757   0.047  -0.017  -0.329   0.051   1.598   0.299  -0.053  -0.000   0.007   0.024  -0.000
 -0.053  -0.053  -0.187  -0.077  -0.329   0.048   0.048   0.170   0.067   0.299   1.419  -0.303  -0.000  -0.010   0.010   0.000
  0.010   0.010   0.022   0.017   0.040  -0.010  -0.010  -0.030  -0.016  -0.053  -0.303   0.069   0.000   0.002  -0.002  -0.000
 -0.001   0.001  -0.004  -0.000   0.000   0.002  -0.002   0.003   0.000  -0.000  -0.000   0.000   0.061   0.003   0.003  -0.004
 -0.000  -0.003   0.033   0.014  -0.008   0.000   0.002  -0.031  -0.011   0.007  -0.010   0.002   0.003   0.100   0.004  -0.000
  0.002   0.000   0.024  -0.014  -0.025  -0.002  -0.000  -0.022   0.011   0.024   0.010  -0.002   0.003   0.004   0.100  -0.000
 -0.001   0.001   0.000   0.000  -0.000  -0.000   0.000  -0.000  -0.000  -0.000   0.000  -0.000  -0.004  -0.000  -0.000   0.000
  0.000   0.000  -0.001  -0.002   0.000  -0.000  -0.000   0.002   0.001  -0.000   0.001  -0.000  -0.000  -0.007  -0.000   0.000
 -0.000  -0.000  -0.001   0.001   0.001   0.000   0.000   0.001  -0.001  -0.002  -0.001   0.000  -0.000  -0.000  -0.007   0.000


------------------------ aborting loop because EDIFF is reached ----------------------------------------


 


 total charge     
 
# of ion       s       p       d       tot
------------------------------------------
    1        0.238   0.147   9.323   9.709
    2        0.241   0.152   9.320   9.713
    3        0.241   0.152   9.320   9.713
    4        0.241   0.152   9.320   9.713
    5        0.241   0.152   9.320   9.713
    6        0.252   0.158   9.313   9.723
    7        0.238   0.147   9.323   9.708
    8        0.252   0.158   9.313   9.723
    9        1.835   1.398   0.139   3.372
   10        1.834   1.402   0.139   3.374
   11        1.834   1.401   0.138   3.374
   12        1.835   1.398   0.139   3.372
   13        1.833   1.401   0.135   3.369
   14        1.833   1.401   0.136   3.370
   15        1.834   1.401   0.138   3.373
   16        1.834   1.401   0.138   3.373
   17        1.513   2.748   0.016   4.277
   18        1.517   2.746   0.013   4.276
   19        1.513   2.748   0.016   4.277
   20        1.516   2.744   0.015   4.274
   21        1.516   2.743   0.015   4.274
   22        1.515   2.743   0.015   4.272
   23        1.517   2.745   0.012   4.275
   24        1.514   2.743   0.015   4.272
   25        1.518   2.742   0.012   4.273
   26        1.514   2.742   0.017   4.274
   27        1.518   2.742   0.013   4.273
   28        1.518   2.742   0.012   4.272
   29        1.518   2.742   0.012   4.272
   30        1.518   2.742   0.011   4.271
   31        1.514   2.742   0.017   4.274
   32        1.518   2.742   0.011   4.271
   33        1.516   2.743   0.015   4.274
   34        1.513   2.748   0.016   4.277
   35        1.518   2.746   0.012   4.275
   36        1.513   2.748   0.016   4.277
   37        1.515   2.743   0.015   4.272
   38        1.517   2.745   0.013   4.275
   39        1.514   2.743   0.015   4.272
   40        1.516   2.743   0.015   4.274
   41        1.519   2.742   0.012   4.272
   42        1.518   2.743   0.012   4.273
   43        1.514   2.742   0.017   4.274
   44        1.518   2.742   0.012   4.273
   45        1.518   2.742   0.011   4.271
   46        1.514   2.742   0.017   4.274
   47        1.518   2.742   0.011   4.271
   48        1.519   2.742   0.012   4.272
--------------------------------------------------
tot         65.136 100.215  76.096 241.447
 


--------------------------------------------------------------------------------------------------------



  FREE ENERGIE OF THE ION-ELECTRON SYSTEM (eV)
  ---------------------------------------------------
  free  energy   TOTEN  =      -119.96660594 eV

  energy  without entropy=     -119.96660594  energy(sigma->0) =     -119.96660594
 


--------------------------------------------------------------------------------------------------------




--------------------------------------------------------------------------------------------------------


 writing wavefunctions
     LOOP+:  cpu time  113.5904: real time  113.6748
    4ORBIT:  cpu time    0.0000: real time    0.0000
 


 total charge     
 
# of ion       s       p       d       tot
------------------------------------------
    1        0.238   0.147   9.323   9.709
    2        0.241   0.152   9.320   9.713
    3        0.241   0.152   9.320   9.713
    4        0.241   0.152   9.320   9.713
    5        0.241   0.152   9.320   9.713
    6        0.252   0.158   9.313   9.723
    7        0.238   0.147   9.323   9.708
    8        0.252   0.158   9.313   9.723
    9        1.835   1.398   0.139   3.372
   10        1.834   1.402   0.139   3.374
   11        1.834   1.401   0.138   3.374
   12        1.835   1.398   0.139   3.372
   13        1.833   1.401   0.135   3.369
   14        1.833   1.401   0.136   3.370
   15        1.834   1.401   0.138   3.373
   16        1.834   1.401   0.138   3.373
   17        1.513   2.748   0.016   4.277
   18        1.517   2.746   0.013   4.276
   19        1.513   2.748   0.016   4.277
   20        1.516   2.744   0.015   4.274
   21        1.516   2.743   0.015   4.274
   22        1.515   2.743   0.015   4.272
   23        1.517   2.745   0.012   4.275
   24        1.514   2.743   0.015   4.272
   25        1.518   2.742   0.012   4.273
   26        1.514   2.742   0.017   4.274
   27        1.518   2.742   0.013   4.273
   28        1.518   2.742   0.012   4.272
   29        1.518   2.742   0.012   4.272
   30        1.518   2.742   0.011   4.271
   31        1.514   2.742   0.017   4.274
   32        1.518   2.742   0.011   4.271
   33        1.516   2.743   0.015   4.274
   34        1.513   2.748   0.016   4.277
   35        1.518   2.746   0.012   4.275
   36        1.513   2.748   0.016   4.277
   37        1.515   2.743   0.015   4.272
   38        1.517   2.745   0.013   4.275
   39        1.514   2.743   0.015   4.272
   40        1.516   2.743   0.015   4.274
   41        1.519   2.742   0.012   4.272
   42        1.518   2.743   0.012   4.273
   43        1.514   2.742   0.017   4.274
   44        1.518   2.742   0.012   4.273
   45        1.518   2.742   0.011   4.271
   46        1.514   2.742   0.017   4.274
   47        1.518   2.742   0.011   4.271
   48        1.519   2.742   0.012   4.272
--------------------------------------------------
tot         65.136 100.215  76.096 241.447
 
 BZINTS: Fermi energy:    2.098154;  352.000000 electrons
         Band energy:-0.745675E+03;  BLOECHL correction:   -0.000000

 total amount of memory used by VASP MPI-rank0  2761676. kBytes
=======================================================================

   base      :      30000. kBytes
   nonl-proj :     301348. kBytes
   fftplans  :      34720. kBytes
   grid      :      70000. kBytes
   one-center:        746. kBytes
   wavefun   :    2324862. kBytes
 
  
  
 General timing and accounting informations for this job:
 ========================================================
  
                  Total CPU time used (sec):      153.101
                            User time (sec):      148.010
                          System time (sec):        5.091
                         Elapsed time (sec):      154.527
  
                   Maximum memory used (kb):     4318368.
                   Average memory used (kb):           0.
  
                          Minor page faults:       418047
                          Major page faults:            0
                 Voluntary context switches:         2384
