 vasp.6.1.0 28Jan20 (build Jan 13 2021 21:44:47) complex                        
  
 executed on             LinuxIFC date 2021.09.12  19:23:39
 running on    9 total cores
 distrk:  each k-point on    1 cores,    9 groups
 distr:  one band on NCORE=   1 cores,    1 groups


--------------------------------------------------------------------------------------------------------


 INCAR:
 POTCAR:    PAW_PBE Ag 02Apr2005                  
 POTCAR:    PAW_PBE Bi 08Apr2002                  
 POTCAR:    PAW_PBE I 08Apr2002                   
 -----------------------------------------------------------------------------
|                                                                             |
|           W    W    AA    RRRRR   N    N  II  N    N   GGGG   !!!           |
|           W    W   A  A   R    R  NN   N  II  NN   N  G    G  !!!           |
|           W    W  A    A  R    R  N N  N  II  N N  N  G       !!!           |
|           W WW W  AAAAAA  RRRRR   N  N N  II  N  N N  G  GGG   !            |
|           WW  WW  A    A  R   R   N   NN  II  N   NN  G    G                |
|           W    W  A    A  R    R  N    N  II  N    N   GGGG   !!!           |
|                                                                             |
|     For optimal performance we recommend to set                             |
|       NCORE = 4 - approx SQRT(number of cores).                             |
|     NCORE specifies how many cores store one orbital (NPAR=cpu/NCORE).      |
|     This setting can greatly improve the performance of VASP for DFT.       |
|     The default, NCORE=1 might be grossly inefficient on modern             |
|     multi-core architectures or massively parallel machines. Do your        |
|     own testing!!!!                                                         |
|     Unfortunately you need to use the default for GW and RPA                |
|     calculations (for HF NCORE is supported but not extensively tested      |
|     yet).                                                                   |
|                                                                             |
 -----------------------------------------------------------------------------

 POTCAR:    PAW_PBE Ag 02Apr2005                  
   VRHFIN =Ag : s1 d10                                                                              
   LEXCH  = PE                                                                                      
   EATOM  =  1037.2675 eV,   76.2370 Ry                                                             
                                                                                                    
   TITEL  = PAW_PBE Ag 02Apr2005                                                                    
   LULTRA =        F    use ultrasoft PP ?                                                          
   IUNSCR =        1    unscreen: 0-lin 1-nonlin 2-no                                               
   RPACOR =    2.000    partial core radius                                                         
   POMASS =  107.868; ZVAL   =   11.000    mass and valenz                                          
   RCORE  =    2.500    outmost cutoff radius                                                       
   RWIGS  =    2.840; RWIGS  =    1.503    wigner-seitz radius (au A)                               
   ENMAX  =  249.844; ENMIN  =  187.383 eV                                                          
   ICORE  =        3    local potential                                                             
   LCOR   =        T    correct aug charges                                                         
   LPAW   =        T    paw PP                                                                      
   EAUG   =  412.496                                                                                
   DEXC   =    0.000                                                                                
   RMAX   =    2.560    core radius for proj-oper                                                   
   RAUG   =    1.300    factor for augmentation sphere                                              
   RDEP   =    2.576    radius for radial grids                                                     
   RDEPT  =    2.072    core radius for aug-charge                                                  
                                                                                                    
   Atomic configuration                                                                             
   12 entries                                                                                       
     n  l   j            E        occ.                                                              
     1  0  0.50    -25324.9161   2.0000                                                             
     2  0  0.50     -3728.5341   2.0000                                                             
     2  1  1.50     -3344.0404   6.0000                                                             
     3  0  0.50      -683.5581   2.0000                                                             
     3  1  1.50      -557.3225   6.0000                                                             
     3  2  2.50      -358.3853  10.0000                                                             
     4  0  0.50       -95.0341   2.0000                                                             
     4  1  1.50       -58.5511   6.0000                                                             
     4  2  2.50        -7.4440  10.0000                                                             
     5  0  0.50        -4.4045   1.0000                                                             
     5  1  0.50        -1.3606   0.0000                                                             
     4  3  2.50        -1.3606   0.0000                                                             
   Description                                                                                      
     l       E           TYP  RCUT    TYP  RCUT                                                     
     2     -7.4439781     23  2.400                                                                 
     2     -8.8045607     23  2.400                                                                 
     0     -4.4044681     23  2.400                                                                 
     0      1.9520038     23  2.400                                                                 
     1     -1.3605826     23  2.500                                                                 
     1     27.2116520     23  2.500                                                                 
     3     -4.0817478     23  2.400                                                                 
  local pseudopotential read in
  partial core-charges read in
  partial kinetic energy density read in
  atomic valenz-charges read in
  non local Contribution for L=           2  read in
    real space projection operators read in
  non local Contribution for L=           2  read in
    real space projection operators read in
  non local Contribution for L=           0  read in
    real space projection operators read in
  non local Contribution for L=           0  read in
    real space projection operators read in
  non local Contribution for L=           1  read in
    real space projection operators read in
  non local Contribution for L=           1  read in
    real space projection operators read in
    PAW grid and wavefunctions read in
 
   number of l-projection  operators is LMAX  =           6
   number of lm-projection operators is LMMAX =          18
 
 POTCAR:    PAW_PBE Bi 08Apr2002                  
   VRHFIN =Bi:                                                                                      
   LEXCH  = PE                                                                                      
   EATOM  =   150.8133 eV,   11.0845 Ry                                                             
                                                                                                    
   TITEL  = PAW_PBE Bi 08Apr2002                                                                    
   LULTRA =        F    use ultrasoft PP ?                                                          
   IUNSCR =        1    unscreen: 0-lin 1-nonlin 2-no                                               
   RPACOR =    2.200    partial core radius                                                         
   POMASS =  208.980; ZVAL   =    5.000    mass and valenz                                          
   RCORE  =    3.000    outmost cutoff radius                                                       
   RWIGS  =    3.090; RWIGS  =    1.635    wigner-seitz radius (au A)                               
   ENMAX  =  105.037; ENMIN  =   78.777 eV                                                          
   ICORE  =        3    local potential                                                             
   LCOR   =        T    correct aug charges                                                         
   LPAW   =        T    paw PP                                                                      
   EAUG   =  265.427                                                                                
   DEXC   =    0.000                                                                                
   RMAX   =    3.067    core radius for proj-oper                                                   
   RAUG   =    1.300    factor for augmentation sphere                                              
   RDEP   =    3.012    radius for radial grids                                                     
   RDEPT  =    2.604    core radius for aug-charge                                                  
                                                                                                    
   Atomic configuration                                                                             
   17 entries                                                                                       
     n  l   j            E        occ.                                                              
     1  0  0.50    -90639.6582   2.0000                                                             
     2  0  0.50    -16282.4667   2.0000                                                             
     2  1  1.50    -13922.8287   6.0000                                                             
     3  0  0.50     -3930.4763   2.0000                                                             
     3  1  1.50     -3256.7013   6.0000                                                             
     3  2  2.50     -2581.6169  10.0000                                                             
     4  0  0.50      -902.2614   2.0000                                                             
     4  1  1.50      -681.5915   6.0000                                                             
     4  2  2.50      -429.8249  10.0000                                                             
     4  3  3.50      -152.6004  14.0000                                                             
     5  0  0.50      -157.7156   2.0000                                                             
     5  1  1.50       -95.8054   6.0000                                                             
     5  2  2.50       -27.0806  10.0000                                                             
     6  0  0.50       -14.4732   2.0000                                                             
     6  1  1.50        -4.5702   3.0000                                                             
     6  2  2.50        -2.7212   0.0000                                                             
     5  3  2.50        -2.7212   0.0000                                                             
   Description                                                                                      
     l       E           TYP  RCUT    TYP  RCUT                                                     
     0    -14.4732299     23  3.000                                                                 
     0    -12.2452434     23  3.000                                                                 
     1     -4.5701666     23  3.000                                                                 
     1    -13.6058260     23  3.000                                                                 
     2     -2.7211652     23  3.000                                                                 
     3     -1.3605826      7  3.000                                                                 
  local pseudopotential read in
  partial core-charges read in
  partial kinetic energy density read in
  kinetic energy density of atom read in
  atomic valenz-charges read in
  non local Contribution for L=           0  read in
    real space projection operators read in
  non local Contribution for L=           0  read in
    real space projection operators read in
  non local Contribution for L=           1  read in
    real space projection operators read in
  non local Contribution for L=           1  read in
    real space projection operators read in
  non local Contribution for L=           2  read in
    real space projection operators read in
    PAW grid and wavefunctions read in
 
   number of l-projection  operators is LMAX  =           5
   number of lm-projection operators is LMMAX =          13
 
 POTCAR:    PAW_PBE I 08Apr2002                   
   VRHFIN =I : s2p5                                                                                 
   LEXCH  = PE                                                                                      
   EATOM  =   315.8678 eV,   23.2156 Ry                                                             
                                                                                                    
   TITEL  = PAW_PBE I 08Apr2002                                                                     
   LULTRA =        F    use ultrasoft PP ?                                                          
   IUNSCR =        1    unscreen: 0-lin 1-nonlin 2-no                                               
   RPACOR =    2.200    partial core radius                                                         
   POMASS =  126.904; ZVAL   =    7.000    mass and valenz                                          
   RCORE  =    2.300    outmost cutoff radius                                                       
   RWIGS  =    2.810; RWIGS  =    1.487    wigner-seitz radius (au A)                               
   ENMAX  =  175.647; ENMIN  =  131.735 eV                                                          
   ICORE  =        3    local potential                                                             
   LCOR   =        T    correct aug charges                                                         
   LPAW   =        T    paw PP                                                                      
   EAUG   =  370.139                                                                                
   DEXC   =    0.000                                                                                
   RMAX   =    2.359    core radius for proj-oper                                                   
   RAUG   =    1.300    factor for augmentation sphere                                              
   RDEP   =    2.392    radius for radial grids                                                     
   RDEPT  =    2.170    core radius for aug-charge                                                  
                                                                                                    
   Atomic configuration                                                                             
   13 entries                                                                                       
     n  l   j            E        occ.                                                              
     1  0  0.50    -32976.3739   2.0000                                                             
     2  0  0.50     -5094.5933   2.0000                                                             
     2  1  1.50     -4572.0131   6.0000                                                             
     3  0  0.50     -1028.2813   2.0000                                                             
     3  1  1.50      -859.0250   6.0000                                                             
     3  2  2.50      -605.7620  10.0000                                                             
     4  0  0.50      -180.5540   2.0000                                                             
     4  1  1.50      -127.5306   6.0000                                                             
     4  2  2.50       -50.2720  10.0000                                                             
     5  0  0.50       -17.4058   2.0000                                                             
     5  1  0.50        -7.0851   5.0000                                                             
     5  2  1.50        -7.0750   0.0000                                                             
     4  3  2.50        -7.0750   0.0000                                                             
   Description                                                                                      
     l       E           TYP  RCUT    TYP  RCUT                                                     
     0    -17.4058016     23  2.300                                                                 
     0    -18.7663842     23  2.300                                                                 
     1     -7.0850686     23  2.300                                                                 
     1     -4.2150896     23  2.300                                                                 
     2     -7.0750295     23  2.300                                                                 
     3     -1.3605826     23  2.300                                                                 
  local pseudopotential read in
  partial core-charges read in
  partial kinetic energy density read in
  atomic valenz-charges read in
  non local Contribution for L=           0  read in
    real space projection operators read in
  non local Contribution for L=           0  read in
    real space projection operators read in
  non local Contribution for L=           1  read in
    real space projection operators read in
  non local Contribution for L=           1  read in
    real space projection operators read in
  non local Contribution for L=           2  read in
    real space projection operators read in
    PAW grid and wavefunctions read in
 
   number of l-projection  operators is LMAX  =           5
   number of lm-projection operators is LMMAX =          13
 
 -----------------------------------------------------------------------------
|                                                                             |
|               ----> ADVICE to this user running VASP <----                  |
|                                                                             |
|     You have a (more or less) 'large supercell' and for larger cells it     |
|     might be more efficient to use real-space projection operators.         |
|     Therefore, try LREAL= Auto in the INCAR file.                           |
|     Mind: For very accurate calculation, you might also keep the            |
|     reciprocal projection scheme (i.e. LREAL=.FALSE.).                      |
|                                                                             |
 -----------------------------------------------------------------------------

  PAW_PBE Ag 02Apr2005                  :
 energy of atom  1       EATOM=-1037.2675
 kinetic energy error for atom=    0.0686 (will be added to EATOM!!)
  PAW_PBE Bi 08Apr2002                  :
 energy of atom  2       EATOM= -150.8133
 kinetic energy error for atom=    0.0004 (will be added to EATOM!!)
  PAW_PBE I 08Apr2002                   :
 energy of atom  3       EATOM= -315.8678
 kinetic energy error for atom=    0.0044 (will be added to EATOM!!)
 
 
 POSCAR: Generation Seed Number
  positions in direct lattice
  velocities in cartesian coordinates
 exchange correlation table for  LEXCH =        8
   RHO(1)=    0.500       N(1)  =     2000
   RHO(2)=  100.500       N(2)  =     4000
 


--------------------------------------------------------------------------------------------------------


 ion  position               nearest neighbor table
   1  0.024  0.995  0.989-  34 2.94  17 2.99  27 3.06  25 3.12  33 3.19  21 3.56
   2  0.251  0.224  0.975-  29 2.96  17 2.96  42 2.96  25 2.96
   3  0.977  0.510  0.505-  28 2.94  24 2.99  36 3.07  35 3.13  26 3.16  20 3.56
   4  0.996  0.752  0.747-  28 3.02  34 3.02  36 3.07  27 3.08  48 3.23  44 3.32
   5  0.497  0.998  0.503-  38 3.02  32 3.03  30 3.07  37 3.07  18 3.23  22 3.31
   6  0.752  0.525  0.276-  35 2.95  24 2.96  47 2.97  39 2.97
   7  0.524  0.755  0.260-  32 2.94  47 2.99  37 3.07  39 3.14  31 3.15  43 3.56
   8  0.477  0.241  0.744-  38 2.95  42 2.98  30 3.06  40 3.14  29 3.15  46 3.56
   9  0.501  0.497  0.003-  39 3.07  29 3.07  23 3.14  19 3.14  31 3.19  40 3.19
  10  0.754  0.751  0.002-  27 3.03  47 3.05  21 3.13  23 3.14  31 3.19  48 3.20
  11  0.001  0.252  0.248-  25 3.07  35 3.07  41 3.14  45 3.14  33 3.18  26 3.18
  12  0.254  0.998  0.249-  37 3.03  17 3.05  43 3.12  41 3.14  33 3.19  18 3.20
  13  0.750  0.000  0.750-  22 3.11  38 3.11  34 3.11  48 3.12  46 3.14  21 3.14
  14  0.247  0.499  0.749-  36 3.03  42 3.06  20 3.13  19 3.14  40 3.19  44 3.20
  15  0.747  0.251  0.501-  30 3.03  24 3.06  46 3.13  45 3.14  26 3.19  22 3.20
  16  0.250  0.750  0.501-  44 3.11  32 3.11  28 3.11  18 3.12  20 3.14  43 3.14
  17  0.258  0.993  0.009-   2 2.96   1 2.99  12 3.05
  18  0.243  0.995  0.501-  16 3.12  12 3.20   5 3.23
  19  0.254  0.509  0.996-   9 3.14  14 3.14
  20  0.257  0.503  0.503-  14 3.13  16 3.14   3 3.56
  21  0.744  0.997  0.997-  10 3.13  13 3.14   1 3.56
  22  0.758  1.000  0.505-  13 3.11  15 3.20   5 3.31
  23  0.747  0.505  0.991-   9 3.14  10 3.14
  24  0.743  0.492  0.507-   6 2.96   3 2.99  15 3.06
  25  0.020  0.240  0.008-   2 2.96  11 3.07   1 3.12
  26  0.998  0.262  0.498-   3 3.16  11 3.18  15 3.19
  27  0.992  0.756  0.989-  10 3.03   1 3.06   4 3.08
  28  0.006  0.740  0.510-   3 2.94   4 3.02  16 3.11
  29  0.481  0.257  0.992-   2 2.96   9 3.07   8 3.15
  30  0.508  0.239  0.505-  15 3.03   8 3.06   5 3.07
  31  0.503  0.748  0.013-   7 3.15   9 3.19  10 3.19
  32  0.495  0.760  0.490-   7 2.94   5 3.03  16 3.11
  33  0.003  0.002  0.239-  11 3.18   1 3.19  12 3.19
  34  0.995  0.990  0.759-   1 2.94   4 3.02  13 3.11
  35  0.981  0.492  0.259-   6 2.95  11 3.07   3 3.13
  36  0.008  0.511  0.745-  14 3.03   4 3.07   3 3.07
  37  0.492  0.995  0.261-  12 3.03   7 3.07   5 3.07
  38  0.506  0.011  0.740-   8 2.95   5 3.02  13 3.11
  39  0.521  0.509  0.243-   6 2.97   9 3.07   7 3.14
  40  0.498  0.487  0.753-   8 3.14   9 3.19  14 3.19
  41  0.247  0.246  0.260-  11 3.14  12 3.14
  42  0.243  0.258  0.745-   2 2.96   8 2.98  14 3.06
  43  0.244  0.753  0.253-  12 3.12  16 3.14   7 3.56
  44  0.258  0.750  0.745-  16 3.11  14 3.20   4 3.32
  45  0.754  0.241  0.255-  11 3.14  15 3.14
  46  0.757  0.247  0.747-  15 3.13  13 3.14   8 3.56
  47  0.758  0.756  0.242-   6 2.97   7 2.99  10 3.05
  48  0.743  0.755  0.750-  13 3.12  10 3.20   4 3.23
 
 -----------------------------------------------------------------------------
|                                                                             |
|           W    W    AA    RRRRR   N    N  II  N    N   GGGG   !!!           |
|           W    W   A  A   R    R  NN   N  II  NN   N  G    G  !!!           |
|           W    W  A    A  R    R  N N  N  II  N N  N  G       !!!           |
|           W WW W  AAAAAA  RRRRR   N  N N  II  N  N N  G  GGG   !            |
|           WW  WW  A    A  R   R   N   NN  II  N   NN  G    G                |
|           W    W  A    A  R    R  N    N  II  N    N   GGGG   !!!           |
|                                                                             |
|     The determination of the symmetry of your systems shows a strong        |
|     dependence on the tolerance parameter SYMPREC. This is often the        |
|     result of "noise" in the structural parameters (lattice vectors         |
|     and/or ionic positions). Set NWRITE=3 for more details.                 |
|                                                                             |
 -----------------------------------------------------------------------------

  Warning from LATTYP: Got some problem with cell dimensions!
  Tried to take original basis but could not verify dimensions!
  LATTYP: Found a triclinic cell.
 ALAT       =    12.7074122921
 B/A-ratio  =     1.4141459717
 C/A-ratio  =     0.9999253137
 COS(alpha) =     0.0000102332
 COS(beta)  =     0.0001567312
 COS(gamma) =     0.7070196659
  
  Lattice vectors:
  
 A1 = ( -12.7074122304,  -0.0009309393,  -0.0008375649)
 A2 = ( -12.7061704931,  12.7074393871,   0.0001142161)
 A3 = (  -0.0011539339,  -0.0008557331, -12.7064631419)


Analysis of symmetry for initial positions (statically):
=====================================================================
 Subroutine PRICEL returns:
 Original cell was already a primitive cell.
 

 Routine SETGRP: Setting up the symmetry group for a 
 triclinic supercell.


 Subroutine GETGRP returns: Found  1 space group operations
 (whereof  1 operations were pure point group operations)
 out of a pool of  2 trial point group operations.


The static configuration has the point symmetry C_1 .


Analysis of symmetry for dynamics (positions and initial velocities):
=====================================================================
 Subroutine PRICEL returns:
 Original cell was already a primitive cell.
 

 Routine SETGRP: Setting up the symmetry group for a 
 triclinic supercell.


 Subroutine GETGRP returns: Found  1 space group operations
 (whereof  1 operations were pure point group operations)
 out of a pool of  2 trial point group operations.


The dynamic configuration has the point symmetry C_1 .


 Subroutine INISYM returns: Found  1 space group operations
 (whereof  1 operations are pure point group operations),
 and found     1 'primitive' translations


----------------------------------------------------------------------------------------

                                     Primitive cell                                     

  volume of cell :    2051.9731

  direct lattice vectors                    reciprocal lattice vectors
    12.707412230  0.000930939  0.000837565     0.078694229 -0.000007689 -0.000007146
     0.001241737 12.708370326  0.000951781    -0.000005764  0.078688296 -0.000005299
     0.001153934  0.000855733 12.706463142    -0.000005187 -0.000005894  0.078700107

  length of vectors
    12.707412292 12.708370423 12.706463223     0.078694230  0.078688297  0.078700108

  position of ions in fractional coordinates (direct lattice)
     0.023778927  0.995172480  0.988813103
     0.250807075  0.223937641  0.975404369
     0.977052307  0.510111941  0.505208190
     0.996487869  0.752326821  0.747126824
     0.497259167  0.997778200  0.503001595
     0.751731407  0.524824705  0.276155695
     0.523750660  0.755497427  0.260342344
     0.476890532  0.240625136  0.744499841
     0.500630350  0.497382526  0.003169655
     0.753967855  0.751497508  0.002070609
     0.000512061  0.251563675  0.248346154
     0.253910917  0.998449818  0.248990624
     0.750092187  0.000161187  0.749911145
     0.246716060  0.498679399  0.749261856
     0.746667447  0.251104955  0.501454352
     0.250464193  0.749789681  0.500614305
     0.257985753  0.993351451  0.008710434
     0.243050394  0.994938573  0.500828038
     0.253926636  0.509214498  0.996134494
     0.257102481  0.503178068  0.503369909
     0.743627109  0.997151459  0.997047153
     0.757634747  0.999757969  0.505336511
     0.747122185  0.504517225  0.991050098
     0.742680389  0.491588572  0.506805592
     0.020356651  0.239967563  0.007716203
     0.997803382  0.262038014  0.498456937
     0.992362656  0.756181258  0.989449008
     0.006015337  0.739880671  0.510001462
     0.480762837  0.257106800  0.992179439
     0.508258009  0.239304384  0.505454209
     0.502985300  0.747938612  0.013370398
     0.494775891  0.760001600  0.490115645
     0.002971057  0.001735598  0.239025436
     0.994561127  0.989916011  0.759375643
     0.981105849  0.492321630  0.259293686
     0.008287953  0.511166869  0.744860968
     0.492353206  0.994676676  0.261152880
     0.505814795  0.010613891  0.740342837
     0.521000754  0.508626114  0.243382597
     0.497772614  0.486986233  0.752517613
     0.246987253  0.245521714  0.259529593
     0.242759521  0.258045048  0.744894858
     0.243664632  0.752977605  0.253482346
     0.257990075  0.749848108  0.745252798
     0.753913353  0.240558214  0.254575636
     0.756934116  0.246827219  0.747251917
     0.757976009  0.755639022  0.242396296
     0.742692455  0.755000803  0.750240575

  ion indices of the primitive-cell ions
   primitive index   ion index
                 1           1
                 2           2
                 3           3
                 4           4
                 5           5
                 6           6
                 7           7
                 8           8
                 9           9
                10          10
                11          11
                12          12
                13          13
                14          14
                15          15
                16          16
                17          17
                18          18
                19          19
                20          20
                21          21
                22          22
                23          23
                24          24
                25          25
                26          26
                27          27
                28          28
                29          29
                30          30
                31          31
                32          32
                33          33
                34          34
                35          35
                36          36
                37          37
                38          38
                39          39
                40          40
                41          41
                42          42
                43          43
                44          44
                45          45
                46          46
                47          47
                48          48

----------------------------------------------------------------------------------------

 
 
 KPOINTS: agbii                                   

Automatic generation of k-mesh.
Space group operators:
 irot       det(A)        alpha          n_x          n_y          n_z        tau_x        tau_y        tau_z
    1     1.000000     0.000001     1.000000     0.000000     0.000000     0.000000     0.000000     0.000000
 TETIRR: Found    192 inequivalent tetrahedra from      384
 
 Subroutine IBZKPT returns following result:
 ===========================================
 
 Found     36 irreducible k-points:
 
 Following reciprocal coordinates:
            Coordinates               Weight
  0.000000  0.000000  0.000000      1.000000
  0.250000  0.000000  0.000000      2.000000
  0.500000  0.000000  0.000000      1.000000
  0.000000  0.250000 -0.000000      2.000000
  0.250000  0.250000  0.000000      2.000000
  0.500000  0.250000  0.000000      2.000000
 -0.250000  0.250000 -0.000000      2.000000
  0.000000  0.500000 -0.000000      1.000000
  0.250000  0.500000  0.000000      2.000000
  0.500000  0.500000  0.000000      1.000000
 -0.000000  0.000000  0.250000      2.000000
  0.250000  0.000000  0.250000      2.000000
  0.500000  0.000000  0.250000      2.000000
 -0.250000  0.000000  0.250000      2.000000
 -0.000000  0.250000  0.250000      2.000000
  0.250000  0.250000  0.250000      2.000000
  0.500000  0.250000  0.250000      2.000000
 -0.250000  0.250000  0.250000      2.000000
  0.000000  0.500000  0.250000      2.000000
  0.250000  0.500000  0.250000      2.000000
  0.500000  0.500000  0.250000      2.000000
 -0.250000  0.500000  0.250000      2.000000
 -0.000000 -0.250000  0.250000      2.000000
  0.250000 -0.250000  0.250000      2.000000
  0.500000 -0.250000  0.250000      2.000000
 -0.250000 -0.250000  0.250000      2.000000
 -0.000000  0.000000  0.500000      1.000000
  0.250000  0.000000  0.500000      2.000000
  0.500000  0.000000  0.500000      1.000000
 -0.000000  0.250000  0.500000      2.000000
  0.250000  0.250000  0.500000      2.000000
  0.500000  0.250000  0.500000      2.000000
 -0.250000  0.250000  0.500000      2.000000
 -0.000000  0.500000  0.500000      1.000000
  0.250000  0.500000  0.500000      2.000000
  0.500000  0.500000  0.500000      1.000000
 
 Following cartesian coordinates:
            Coordinates               Weight
  0.000000  0.000000  0.000000      1.000000
  0.019674 -0.000002 -0.000002      2.000000
  0.039347 -0.000004 -0.000004      1.000000
 -0.000001  0.019672 -0.000001      2.000000
  0.019672  0.019670 -0.000003      2.000000
  0.039346  0.019668 -0.000005      2.000000
 -0.019675  0.019674  0.000000      2.000000
 -0.000003  0.039344 -0.000003      1.000000
  0.019671  0.039342 -0.000004      2.000000
  0.039344  0.039340 -0.000006      1.000000
 -0.000001 -0.000001  0.019675      2.000000
  0.019672 -0.000003  0.019673      2.000000
  0.039346 -0.000005  0.019671      2.000000
 -0.019675  0.000000  0.019677      2.000000
 -0.000003  0.019671  0.019674      2.000000
  0.019671  0.019669  0.019672      2.000000
  0.039344  0.019667  0.019670      2.000000
 -0.019676  0.019673  0.019675      2.000000
 -0.000004  0.039343  0.019672      2.000000
  0.019669  0.039341  0.019671      2.000000
  0.039343  0.039339  0.019669      2.000000
 -0.019678  0.039345  0.019674      2.000000
  0.000000 -0.019674  0.019676      2.000000
  0.019674 -0.019675  0.019675      2.000000
  0.039347 -0.019677  0.019673      2.000000
 -0.019673 -0.019672  0.019678      2.000000
 -0.000003 -0.000003  0.039350      1.000000
  0.019671 -0.000005  0.039348      2.000000
  0.039345 -0.000007  0.039346      1.000000
 -0.000004  0.019669  0.039349      2.000000
  0.019670  0.019667  0.039347      2.000000
  0.039343  0.019665  0.039345      2.000000
 -0.019678  0.019671  0.039351      2.000000
 -0.000005  0.039341  0.039347      1.000000
  0.019668  0.039339  0.039346      2.000000
  0.039342  0.039337  0.039344      1.000000
 


--------------------------------------------------------------------------------------------------------




 Dimension of arrays:
   k-points           NKPTS =     36   k-points in BZ     NKDIM =     36   number of bands    NBANDS=    211
   number of dos      NEDOS =   3000   number of ions     NIONS =     48
   non local maximal  LDIM  =      6   non local SUM 2l+1 LMDIM =     18
   total plane-waves  NPLWV = 125000
   max r-space proj   IRMAX =      1   max aug-charges    IRDMAX=   6002
   dimension x,y,z NGX =    50 NGY =   50 NGZ =   50
   dimension x,y,z NGXF=   100 NGYF=  100 NGZF=  100
   support grid    NGXF=   100 NGYF=  100 NGZF=  100
   ions per type =               8   8  32
   NGX,Y,Z   is equivalent  to a cutoff of   6.54,  6.54,  6.54 a.u.
   NGXF,Y,Z  is equivalent  to a cutoff of  13.08, 13.08, 13.08 a.u.

 SYSTEM =  unknown system                          
 POSCAR =  Generation Seed Number                  

 Startparameter for this run:
   NWRITE =      2    write-flag & timer
   PREC   = normal    normal or accurate (medium, high low for compatibility)
   ISTART =      1    job   : 0-new  1-cont  2-samecut
   ICHARG =      1    charge: 1-file 2-atom 10-const
   ISPIN  =      1    spin polarized calculation?
   LNONCOLLINEAR =      F non collinear calculations
   LSORBIT =      F    spin-orbit coupling
   INIWAV =      1    electr: 0-lowe 1-rand  2-diag
   LASPH  =      F    aspherical Exc in radial PAW
   METAGGA=      F    non-selfconsistent MetaGGA calc.

 Electronic Relaxation 1
   ENCUT  =  250.0 eV  18.37 Ry    4.29 a.u.  16.38 16.38 16.38*2*pi/ulx,y,z
   ENINI  =  250.0     initial cutoff
   ENAUG  =  412.5 eV  augmentation charge cutoff
   NELM   =     60;   NELMIN=  2; NELMDL=  0     # of ELM steps 
   EDIFF  = 0.1E-05   stopping-criterion for ELM
   LREAL  =      F    real-space projection
   NLSPLINE    = F    spline interpolate recip. space projectors
   LCOMPAT=      F    compatible to vasp.4.4
   GGA_COMPAT  = T    GGA compatible to vasp.4.4-vasp.4.6
   LMAXPAW     = -100 max onsite density
   LMAXMIX     =    4 max onsite mixed and CHGCAR
   VOSKOWN=      0    Vosko Wilk Nusair interpolation
   ROPT   =    0.00000   0.00000   0.00000
 Ionic relaxation
   EDIFFG = -.1E-01   stopping-criterion for IOM
   NSW    =      0    number of steps for IOM
   NBLOCK =      1;   KBLOCK =      1    inner block; outer block 
   IBRION =     -1    ionic relax: 0-MD 1-quasi-New 2-CG
   NFREE  =      0    steps in history (QN), initial steepest desc. (CG)
   ISIF   =     -1    stress and relaxation
   IWAVPR =     10    prediction:  0-non 1-charg 2-wave 3-comb
   ISYM   =      2    0-nonsym 1-usesym 2-fastsym
   LCORR  =      T    Harris-Foulkes like correction to forces

   POTIM  = 0.5000    time-step for ionic-motion
   TEIN   =    0.0    initial temperature
   TEBEG  =    0.0;   TEEND  =   0.0 temperature during run
   SMASS  =  -3.00    Nose mass-parameter (am)
   estimated Nose-frequenzy (Omega)   =  0.10E-29 period in steps = 0.13E+47 mass=  -0.369E-26a.u.
   SCALEE = 1.0000    scale energy and forces
   NPACO  =    256;   APACO  = 16.0  distance and # of slots for P.C.
   PSTRESS=    0.0 pullay stress

  Mass of Ions in am
   POMASS = 107.87208.98126.90
  Ionic Valenz
   ZVAL   =  11.00  5.00  7.00
  Atomic Wigner-Seitz radii
   RWIGS  =  -1.00 -1.00 -1.00
  virtual crystal weights 
   VCA    =   1.00  1.00  1.00
   NELECT =     352.0000    total number of electrons
   NUPDOWN=      -1.0000    fix difference up-down

 DOS related values:
   EMIN   =  10.00;   EMAX   =-10.00  energy-range for DOS
   EFERMI =   0.00
   ISMEAR =    -5;   SIGMA  =   0.20  broadening in eV -4-tet -1-fermi 0-gaus

 Electronic relaxation 2 (details)
   IALGO  =     38    algorithm
   LDIAG  =      T    sub-space diagonalisation (order eigenvalues)
   LSUBROT=      F    optimize rotation matrix (better conditioning)
   TURBO    =      0    0=normal 1=particle mesh
   IRESTART =      0    0=no restart 2=restart with 2 vectors
   NREBOOT  =      0    no. of reboots
   NMIN     =      0    reboot dimension
   EREF     =   0.00    reference energy to select bands
   IMIX   =      4    mixing-type and parameters
     AMIX     =   0.40;   BMIX     =  1.00
     AMIX_MAG =   1.60;   BMIX_MAG =  1.00
     AMIN     =   0.10
     WC   =   100.;   INIMIX=   1;  MIXPRE=   1;  MAXMIX= -45

 Intra band minimization:
   WEIMIN = 0.0000     energy-eigenvalue tresh-hold
   EBREAK =  0.12E-08  absolut break condition
   DEPER  =   0.30     relativ break condition  

   TIME   =   0.40     timestep for ELM

  volume/ion in A,a.u.               =      42.75       288.49
  Fermi-wavevector in a.u.,A,eV,Ry     =   0.909631  1.718953 11.257845  0.827428
  Thomas-Fermi vector in A             =   2.033698
 
 Write flags
   LWAVE        =      T    write WAVECAR
   LDOWNSAMPLE  =      F    k-point downsampling of WAVECAR
   LCHARG       =      T    write CHGCAR
   LVTOT        =      F    write LOCPOT, total local potential
   LVHAR        =      F    write LOCPOT, Hartree potential only
   LELF         =      F    write electronic localiz. function (ELF)
   LORBIT       =     10    0 simple, 1 ext, 2 COOP (PROOUT), +10 PAW based schemes


 Dipole corrections
   LMONO  =      F    monopole corrections only (constant potential shift)
   LDIPOL =      F    correct potential (dipole corrections)
   IDIPOL =      0    1-x, 2-y, 3-z, 4-all directions 
   EPSILON=  1.0000000 bulk dielectric constant

 Exchange correlation treatment:
   GGA     =    --    GGA type
   LEXCH   =     8    internal setting for exchange type
   VOSKOWN=      0    Vosko Wilk Nusair interpolation
   LHFCALC =     F    Hartree Fock is set to
   LHFONE  =     F    Hartree Fock one center treatment
   AEXX    =    0.0000 exact exchange contribution

 Linear response parameters
   LEPSILON=     F    determine dielectric tensor
   LRPA    =     F    only Hartree local field effects (RPA)
   LNABLA  =     F    use nabla operator in PAW spheres
   LVEL    =     F    velocity operator in full k-point grid
   LINTERFAST=   F  fast interpolation
   KINTER  =     0    interpolate to denser k-point grid
   CSHIFT  =0.1000    complex shift for real part using Kramers Kronig
   OMEGAMAX=  -1.0    maximum frequency
   DEG_THRESHOLD= 0.2000000E-02 threshold for treating states as degnerate
   RTIME   =   -0.100 relaxation time in fs
  (WPLASMAI=    0.000 imaginary part of plasma frequency in eV, 0.658/RTIME)
   DFIELD  = 0.0000000 0.0000000 0.0000000 field for delta impulse in time
 
 Orbital magnetization related:
   ORBITALMAG=     F  switch on orbital magnetization
   LCHIMAG   =     F  perturbation theory with respect to B field
   DQ        =  0.001000  dq finite difference perturbation B field
   LLRAUG    =     F  two centre corrections for induced B field



--------------------------------------------------------------------------------------------------------


 Static calculation
 charge density and potential will be updated during run
 non-spin polarized calculation
 Variant of blocked Davidson
 Davidson routine will perform the subspace rotation
 perform sub-space diagonalisation
    after iterative eigenvector-optimisation
 modified Broyden-mixing scheme, WC =      100.0
 initial mixing is a Kerker type mixing with AMIX =  0.4000 and BMIX =      1.0000
 Hartree-type preconditioning will be used
 using additional bands           35
 reciprocal scheme for non local part
 use partial core corrections
 calculate Harris-corrections to forces 
   (improved forces if not selfconsistent)
 use gradient corrections 
 use of overlap-Matrix (Vanderbilt PP)
 Fermi weights with tetrahedron method with Bloechl corrections


--------------------------------------------------------------------------------------------------------


  energy-cutoff  :      250.00
  volume of cell :     2051.97
      direct lattice vectors                 reciprocal lattice vectors
    12.707412230  0.000930939  0.000837565     0.078694229 -0.000007689 -0.000007146
     0.001241737 12.708370326  0.000951781    -0.000005764  0.078688296 -0.000005299
     0.001153934  0.000855733 12.706463142    -0.000005187 -0.000005894  0.078700107

  length of vectors
    12.707412292 12.708370423 12.706463223     0.078694230  0.078688297  0.078700108


 
 old parameters found on file WAVECAR:
  energy-cutoff  :      250.00
  volume of cell :     2051.97
      direct lattice vectors                 reciprocal lattice vectors
    12.707412230  0.000930939  0.000837565     0.078694229 -0.000007689 -0.000007146
     0.001241737 12.708370326  0.000951781    -0.000005764  0.078688296 -0.000005299
     0.001153934  0.000855733 12.706463142    -0.000005187 -0.000005894  0.078700107

  length of vectors

 
 k-points in units of 2pi/SCALE and weight: agbii                                   
   0.00000000  0.00000000  0.00000000       0.016
   0.01967356 -0.00000192 -0.00000179       0.031
   0.03934711 -0.00000384 -0.00000357       0.016
  -0.00000144  0.01967207 -0.00000132       0.031
   0.01967212  0.01967015 -0.00000311       0.031
   0.03934567  0.01966823 -0.00000490       0.031
  -0.01967500  0.01967400  0.00000046       0.031
  -0.00000288  0.03934415 -0.00000265       0.016
   0.01967068  0.03934223 -0.00000444       0.031
   0.03934423  0.03934030 -0.00000622       0.016
  -0.00000130 -0.00000147  0.01967503       0.031
   0.01967226 -0.00000340  0.01967324       0.031
   0.03934582 -0.00000532  0.01967145       0.031
  -0.01967485  0.00000045  0.01967681       0.031
  -0.00000274  0.01967060  0.01967370       0.031
   0.01967082  0.01966868  0.01967192       0.031
   0.03934438  0.01966676  0.01967013       0.031
  -0.01967630  0.01967252  0.01967549       0.031
  -0.00000418  0.03934267  0.01967238       0.031
   0.01966938  0.03934075  0.01967059       0.031
   0.03934294  0.03933883  0.01966880       0.031
  -0.01967774  0.03934460  0.01967416       0.031
   0.00000014 -0.01967355  0.01967635       0.031
   0.01967370 -0.01967547  0.01967456       0.031
   0.03934726 -0.01967739  0.01967278       0.031
  -0.01967341 -0.01967163  0.01967814       0.031
  -0.00000259 -0.00000295  0.03935005       0.016
   0.01967096 -0.00000487  0.03934827       0.031
   0.03934452 -0.00000679  0.03934648       0.016
  -0.00000403  0.01966913  0.03934873       0.031
   0.01966952  0.01966721  0.03934694       0.031
   0.03934308  0.01966528  0.03934516       0.031
  -0.01967759  0.01967105  0.03935052       0.031
  -0.00000548  0.03934120  0.03934740       0.016
   0.01966808  0.03933928  0.03934562       0.031
   0.03934164  0.03933736  0.03934383       0.016
 
 k-points in reciprocal lattice and weights: agbii                                   
   0.00000000  0.00000000  0.00000000       0.016
   0.25000000  0.00000000  0.00000000       0.031
   0.50000000  0.00000000  0.00000000       0.016
   0.00000000  0.25000000 -0.00000000       0.031
   0.25000000  0.25000000  0.00000000       0.031
   0.50000000  0.25000000  0.00000000       0.031
  -0.25000000  0.25000000 -0.00000000       0.031
   0.00000000  0.50000000 -0.00000000       0.016
   0.25000000  0.50000000  0.00000000       0.031
   0.50000000  0.50000000  0.00000000       0.016
  -0.00000000  0.00000000  0.25000000       0.031
   0.25000000  0.00000000  0.25000000       0.031
   0.50000000  0.00000000  0.25000000       0.031
  -0.25000000  0.00000000  0.25000000       0.031
  -0.00000000  0.25000000  0.25000000       0.031
   0.25000000  0.25000000  0.25000000       0.031
   0.50000000  0.25000000  0.25000000       0.031
  -0.25000000  0.25000000  0.25000000       0.031
   0.00000000  0.50000000  0.25000000       0.031
   0.25000000  0.50000000  0.25000000       0.031
   0.50000000  0.50000000  0.25000000       0.031
  -0.25000000  0.50000000  0.25000000       0.031
  -0.00000000 -0.25000000  0.25000000       0.031
   0.25000000 -0.25000000  0.25000000       0.031
   0.50000000 -0.25000000  0.25000000       0.031
  -0.25000000 -0.25000000  0.25000000       0.031
  -0.00000000  0.00000000  0.50000000       0.016
   0.25000000  0.00000000  0.50000000       0.031
   0.50000000  0.00000000  0.50000000       0.016
  -0.00000000  0.25000000  0.50000000       0.031
   0.25000000  0.25000000  0.50000000       0.031
   0.50000000  0.25000000  0.50000000       0.031
  -0.25000000  0.25000000  0.50000000       0.031
  -0.00000000  0.50000000  0.50000000       0.016
   0.25000000  0.50000000  0.50000000       0.031
   0.50000000  0.50000000  0.50000000       0.016
 
 position of ions in fractional coordinates (direct lattice) 
   0.02377893  0.99517248  0.98881310
   0.25080708  0.22393764  0.97540437
   0.97705231  0.51011194  0.50520819
   0.99648787  0.75232682  0.74712682
   0.49725917  0.99777820  0.50300160
   0.75173141  0.52482470  0.27615569
   0.52375066  0.75549743  0.26034234
   0.47689053  0.24062514  0.74449984
   0.50063035  0.49738253  0.00316966
   0.75396785  0.75149751  0.00207061
   0.00051206  0.25156368  0.24834615
   0.25391092  0.99844982  0.24899062
   0.75009219  0.00016119  0.74991114
   0.24671606  0.49867940  0.74926186
   0.74666745  0.25110495  0.50145435
   0.25046419  0.74978968  0.50061431
   0.25798575  0.99335145  0.00871043
   0.24305039  0.99493857  0.50082804
   0.25392664  0.50921450  0.99613449
   0.25710248  0.50317807  0.50336991
   0.74362711  0.99715146  0.99704715
   0.75763475  0.99975797  0.50533651
   0.74712218  0.50451722  0.99105010
   0.74268039  0.49158857  0.50680559
   0.02035665  0.23996756  0.00771620
   0.99780338  0.26203801  0.49845694
   0.99236266  0.75618126  0.98944901
   0.00601534  0.73988067  0.51000146
   0.48076284  0.25710680  0.99217944
   0.50825801  0.23930438  0.50545421
   0.50298530  0.74793861  0.01337040
   0.49477589  0.76000160  0.49011564
   0.00297106  0.00173560  0.23902544
   0.99456113  0.98991601  0.75937564
   0.98110585  0.49232163  0.25929369
   0.00828795  0.51116687  0.74486097
   0.49235321  0.99467668  0.26115288
   0.50581479  0.01061389  0.74034284
   0.52100075  0.50862611  0.24338260
   0.49777261  0.48698623  0.75251761
   0.24698725  0.24552171  0.25952959
   0.24275952  0.25804505  0.74489486
   0.24366463  0.75297760  0.25348235
   0.25799008  0.74984811  0.74525280
   0.75391335  0.24055821  0.25457564
   0.75693412  0.24682722  0.74725192
   0.75797601  0.75563902  0.24239630
   0.74269245  0.75500080  0.75024057
 
 position of ions in cartesian coordinates  (Angst):
   0.30454539 12.64788871 12.56528435
   3.18851252  2.84695064 12.39436287
  12.41702284  6.48403335  6.42071310
  12.66457846  9.56241486  9.49489012
   6.32069663 12.68102823  6.39273738
   9.55353123  6.67060284  3.51009130
   6.65675409  9.60185145  3.30918814
   6.06120247  3.05903439  9.46058824
   6.36233751  6.32139010  0.04116782
   9.58191589  9.55101230  0.02765688
   0.00710592  3.19717734  3.15584111
   3.22807782 12.68911949  3.16495316
   9.53259618  0.00338844  9.52934673
   3.13660651  6.33827333  9.52114943
   9.48910150  3.19225897  6.37257562
   3.18426047  9.52926649  6.36196063
   3.27957484 12.62412572  0.11184034
   3.09035492 12.64470268  6.36490353
   3.22853223  6.47237523 12.65804357
   3.26831288  6.39524333  6.39674545
   9.45196494 12.67371549 12.67051481
   9.62940161 12.70643225  6.42262586
   9.49575967  6.41313533 12.59384749
   9.43874110  6.24841471  6.44079650
   0.25898723  3.04962221  0.09829110
  12.68039947  3.33143156  6.33470983
  12.61244209  9.61160200 12.57394824
   0.07794661  9.40311959  6.48102402
   6.11071572  3.26870503 12.60773886
   6.45952445  3.04207442  6.42318875
   6.39258573  9.50556056  0.17102363
   6.28883049  9.65926180  6.22877414
   0.03803242  0.02226393  3.03717203
  12.64040372 12.58179496  9.65075381
  12.46822700  6.25774083  3.29599598
   0.10681269  6.49674299  9.46504190
   6.25807163 12.64140138  3.31968854
   6.42846459  0.13598967  9.40757273
   6.62148378  6.46450230  3.09345247
   6.32687486  6.18990875  9.56271773
   3.13917319  3.12063288  3.29814376
   3.08602528  3.28019546  9.46542798
   3.09757443  9.56956200  3.22178484
   3.28017733  9.53022536  9.47045699
   9.58088024  3.05802256  3.23561635
   9.61984262  3.13811581  9.49579785
   9.63313162  9.60385358  3.08135366
   9.43950242  9.59616321  9.53424486
 


--------------------------------------------------------------------------------------------------------


 k-point   1 :   0.0000 0.0000 0.0000  plane waves:   18349
 k-point   2 :   0.2500 0.0000 0.0000  plane waves:   18465
 k-point   3 :   0.5000 0.0000 0.0000  plane waves:   18464
 k-point   4 :   0.0000 0.2500-0.0000  plane waves:   18465
 k-point   5 :   0.2500 0.2500 0.0000  plane waves:   18429
 k-point   6 :   0.5000 0.2500 0.0000  plane waves:   18418
 k-point   7 :  -0.2500 0.2500-0.0000  plane waves:   18429
 k-point   8 :   0.0000 0.5000-0.0000  plane waves:   18464
 k-point   9 :   0.2500 0.5000 0.0000  plane waves:   18418
 k-point  10 :   0.5000 0.5000 0.0000  plane waves:   18400
 k-point  11 :  -0.0000 0.0000 0.2500  plane waves:   18465
 k-point  12 :   0.2500 0.0000 0.2500  plane waves:   18429
 k-point  13 :   0.5000 0.0000 0.2500  plane waves:   18418
 k-point  14 :  -0.2500 0.0000 0.2500  plane waves:   18429
 k-point  15 :  -0.0000 0.2500 0.2500  plane waves:   18429
 k-point  16 :   0.2500 0.2500 0.2500  plane waves:   18430
 k-point  17 :   0.5000 0.2500 0.2500  plane waves:   18421
 k-point  18 :  -0.2500 0.2500 0.2500  plane waves:   18430
 k-point  19 :   0.0000 0.5000 0.2500  plane waves:   18418
 k-point  20 :   0.2500 0.5000 0.2500  plane waves:   18421
 k-point  21 :   0.5000 0.5000 0.2500  plane waves:   18432
 k-point  22 :  -0.2500 0.5000 0.2500  plane waves:   18425
 k-point  23 :  -0.0000-0.2500 0.2500  plane waves:   18429
 k-point  24 :   0.2500-0.2500 0.2500  plane waves:   18430
 k-point  25 :   0.5000-0.2500 0.2500  plane waves:   18422
 k-point  26 :  -0.2500-0.2500 0.2500  plane waves:   18430
 k-point  27 :  -0.0000 0.0000 0.5000  plane waves:   18464
 k-point  28 :   0.2500 0.0000 0.5000  plane waves:   18418
 k-point  29 :   0.5000 0.0000 0.5000  plane waves:   18400
 k-point  30 :  -0.0000 0.2500 0.5000  plane waves:   18418
 k-point  31 :   0.2500 0.2500 0.5000  plane waves:   18425
 k-point  32 :   0.5000 0.2500 0.5000  plane waves:   18432
 k-point  33 :  -0.2500 0.2500 0.5000  plane waves:   18421
 k-point  34 :  -0.0000 0.5000 0.5000  plane waves:   18400
 k-point  35 :   0.2500 0.5000 0.5000  plane waves:   18432
 k-point  36 :   0.5000 0.5000 0.5000  plane waves:   18336

 maximum and minimum number of plane-waves per node :     18465    18336

 maximum number of plane-waves:     18465
 maximum index in each direction: 
   IXMAX=   16   IYMAX=   16   IZMAX=   16
   IXMIN=  -16   IYMIN=  -16   IZMIN=  -16


 serial   3D FFT for wavefunctions
 parallel 3D FFT for charge:
    minimum data exchange during FFTs selected (reduces bandwidth)


 total amount of memory used by VASP MPI-rank0  2761676. kBytes
=======================================================================

   base      :      30000. kBytes
   nonl-proj :     301348. kBytes
   fftplans  :      34720. kBytes
   grid      :      70000. kBytes
   one-center:        746. kBytes
   wavefun   :    2324862. kBytes
 
     INWAV:  cpu time    4.5522: real time    5.7841
 Broyden mixing: mesh for mixing (old mesh)
   NGX = 33   NGY = 33   NGZ = 33
  (NGX  =100   NGY  =100   NGZ  =100)
  gives a total of  35937 points

 initial charge density was supplied:
 number of electron     352.0000416 magnetization 
 keeping initial charge density in first step


--------------------------------------------------------------------------------------------------------


 Maximum index for augmentation-charges         5632 (set IRDMAX)


--------------------------------------------------------------------------------------------------------


 First call to EWALD:  gamma=   0.139
 Maximum number of real-space cells 3x 3x 3
 Maximum number of reciprocal cells 3x 3x 3

    FEWALD:  cpu time    0.0026: real time    0.0026


--------------------------------------- Iteration      1(   1)  ---------------------------------------


    POTLOK:  cpu time    0.5835: real time    0.5903
    SETDIJ:  cpu time    0.0274: real time    0.0274
     EDDAV:  cpu time   58.9984: real time   59.0034
 BZINTS: Fermi energy:    2.097265;  352.000000 electrons
         Band energy:-0.746530E+03;  BLOECHL correction:    0.000000
       DOS:  cpu time    0.0560: real time    0.0560
    CHARGE:  cpu time    1.2231: real time    1.2232
    MIXING:  cpu time    0.0249: real time    0.0249
    --------------------------------------------
      LOOP:  cpu time   60.9133: real time   60.9254

 eigenvalue-minimisations  : 11064
 total energy-change (2. order) :-0.1199674E+03  (-0.3077328E-06)
 number of electron     352.0000416 magnetization 
 augmentation part      -23.1254168 magnetization 

 Broyden mixing:
  rms(total) = 0.67030E-03    rms(broyden)= 0.67027E-03
  rms(prec ) = 0.79559E-03
  weight for this iteration     100.00

 Free energy of the ion-electron system (eV)
  ---------------------------------------------------
  alpha Z        PSCENC =       226.95149166
  Ewald energy   TEWEN  =    -13912.71688970
  -Hartree energ DENC   =     -6049.61224361
  -exchange      EXHF   =         0.00000000
  -V(xc)+E(xc)   XCENC  =     -1392.24441396
  PAW double counting   =     22654.36266481   -20511.90199069
  entropy T*S    EENTRO =         0.00000000
  eigenvalues    EBANDS =      -746.52975879
  atomic energy  EATOM  =     19611.72375700
  Solvation  Ediel_sol  =         0.00000000
  ---------------------------------------------------
  free energy    TOTEN  =      -119.96738327 eV

  energy without entropy =     -119.96738327  energy(sigma->0) =     -119.96738327


--------------------------------------------------------------------------------------------------------




--------------------------------------- Iteration      1(   2)  ---------------------------------------


    POTLOK:  cpu time    0.5601: real time    0.5603
    SETDIJ:  cpu time    0.0544: real time    0.0544
     EDDAV:  cpu time   48.5494: real time   48.5535
 BZINTS: Fermi energy:    2.097112;  352.000000 electrons
         Band energy:-0.746528E+03;  BLOECHL correction:   -0.000000
       DOS:  cpu time    0.0575: real time    0.0575
    --------------------------------------------
      LOOP:  cpu time   49.2214: real time   49.2256

 eigenvalue-minimisations  :  8216
 total energy-change (2. order) : 0.9750511E-07  (-0.1321998E-06)
 number of electron     352.0000416 magnetization 
 augmentation part      -23.1254168 magnetization 

 Free energy of the ion-electron system (eV)
  ---------------------------------------------------
  alpha Z        PSCENC =       226.95149166
  Ewald energy   TEWEN  =    -13912.71688970
  -Hartree energ DENC   =     -6049.61377402
  -exchange      EXHF   =         0.00000000
  -V(xc)+E(xc)   XCENC  =     -1392.24390304
  PAW double counting   =     22653.92503499   -20511.46512666
  entropy T*S    EENTRO =         0.00000000
  eigenvalues    EBANDS =      -746.52797340
  atomic energy  EATOM  =     19611.72375700
  Solvation  Ediel_sol  =         0.00000000
  ---------------------------------------------------
  free energy    TOTEN  =      -119.96738317 eV

  energy without entropy =     -119.96738317  energy(sigma->0) =     -119.96738317


--------------------------------------------------------------------------------------------------------




 average (electrostatic) potential at core
  the test charge radii are     1.1249  1.4024  1.1875
  (the norm of the test charge is              1.0000)
       1 -75.0273       2 -75.1536       3 -75.0252       4 -74.9681       5 -74.9668
       6 -75.1527       7 -75.0233       8 -75.0247       9 -65.4383      10 -65.4957
      11 -65.4378      12 -65.4941      13 -65.4677      14 -65.4937      15 -65.4950
      16 -65.4664      17 -93.2010      18 -93.2898      19 -93.2883      20 -93.3071
      21 -93.3000      22 -93.2754      23 -93.2894      24 -93.1925      25 -93.0594
      26 -93.1531      27 -93.0437      28 -92.9687      29 -93.0491      30 -93.0463
      31 -93.1528      32 -92.9654      33 -93.1470      34 -92.9667      35 -93.0562
      36 -93.0455      37 -93.0410      38 -92.9707      39 -93.0486      40 -93.1530
      41 -93.2909      42 -93.1893      43 -93.3024      44 -93.2709      45 -93.2930
      46 -93.3092      47 -93.1962      48 -93.2933
 
 
 
 E-fermi :   2.0971     XC(G=0):  -7.8224     alpha+bet : -7.8004


 k-point     1 :       0.0000    0.0000    0.0000
  band No.  band energies     occupation 
      1     -10.8153      2.00000
      2     -10.6842      2.00000
      3     -10.6386      2.00000
      4     -10.5035      2.00000
      5     -10.4509      2.00000
      6     -10.2248      2.00000
      7     -10.1911      2.00000
      8     -10.0106      2.00000
      9      -9.8596      2.00000
     10      -9.8497      2.00000
     11      -9.8370      2.00000
     12      -9.8148      2.00000
     13      -9.8101      2.00000
     14      -9.7773      2.00000
     15      -9.7747      2.00000
     16      -9.7072      2.00000
     17      -9.6969      2.00000
     18      -9.6787      2.00000
     19      -9.6764      2.00000
     20      -9.6750      2.00000
     21      -9.6499      2.00000
     22      -9.6270      2.00000
     23      -9.6202      2.00000
     24      -9.5920      2.00000
     25      -9.5803      2.00000
     26      -9.5729      2.00000
     27      -9.5543      2.00000
     28      -9.5277      2.00000
     29      -9.5215      2.00000
     30      -9.5149      2.00000
     31      -9.5085      2.00000
     32      -9.4759      2.00000
     33      -8.1858      2.00000
     34      -8.0871      2.00000
     35      -8.0754      2.00000
     36      -7.8467      2.00000
     37      -7.8192      2.00000
     38      -7.6117      2.00000
     39      -7.5957      2.00000
     40      -7.5939      2.00000
     41      -1.7930      2.00000
     42      -1.7333      2.00000
     43      -1.6859      2.00000
     44      -1.6764      2.00000
     45      -1.6253      2.00000
     46      -1.5574      2.00000
     47      -1.4963      2.00000
     48      -1.4442      2.00000
     49      -1.4404      2.00000
     50      -1.4046      2.00000
     51      -1.4006      2.00000
     52      -1.3625      2.00000
     53      -1.3241      2.00000
     54      -1.2901      2.00000
     55      -1.2833      2.00000
     56      -1.2464      2.00000
     57      -1.2021      2.00000
     58      -1.1955      2.00000
     59      -1.1248      2.00000
     60      -1.0765      2.00000
     61      -1.0730      2.00000
     62      -1.0325      2.00000
     63      -0.9907      2.00000
     64      -0.9893      2.00000
     65      -0.9832      2.00000
     66      -0.9694      2.00000
     67      -0.9549      2.00000
     68      -0.9482      2.00000
     69      -0.9298      2.00000
     70      -0.8926      2.00000
     71      -0.8869      2.00000
     72      -0.8824      2.00000
     73      -0.8508      2.00000
     74      -0.8208      2.00000
     75      -0.8177      2.00000
     76      -0.7843      2.00000
     77      -0.7815      2.00000
     78      -0.7729      2.00000
     79      -0.7520      2.00000
     80      -0.7049      2.00000
     81      -0.6738      2.00000
     82      -0.6644      2.00000
     83      -0.6271      2.00000
     84      -0.6106      2.00000
     85      -0.6009      2.00000
     86      -0.5815      2.00000
     87      -0.5489      2.00000
     88      -0.5202      2.00000
     89      -0.5087      2.00000
     90      -0.4747      2.00000
     91      -0.4492      2.00000
     92      -0.4371      2.00000
     93      -0.4251      2.00000
     94      -0.3822      2.00000
     95      -0.3683      2.00000
     96      -0.3395      2.00000
     97      -0.3235      2.00000
     98      -0.3141      2.00000
     99      -0.2913      2.00000
    100      -0.2854      2.00000
    101      -0.2514      2.00000
    102      -0.2335      2.00000
    103      -0.2295      2.00000
    104      -0.1953      2.00000
    105      -0.1733      2.00000
    106      -0.1683      2.00000
    107      -0.1421      2.00000
    108      -0.1200      2.00000
    109      -0.0920      2.00000
    110      -0.0810      2.00000
    111      -0.0270      2.00000
    112      -0.0090      2.00000
    113       0.1090      2.00000
    114       0.1577      2.00000
    115       0.2000      2.00000
    116       0.2092      2.00000
    117       0.2118      2.00000
    118       0.2394      2.00000
    119       0.2644      2.00000
    120       0.2745      2.00000
    121       0.2830      2.00000
    122       0.3220      2.00000
    123       0.3872      2.00000
    124       0.4266      2.00000
    125       0.4332      2.00000
    126       0.4452      2.00000
    127       0.5142      2.00000
    128       0.5480      2.00000
    129       0.5533      2.00000
    130       0.5557      2.00000
    131       0.5686      2.00000
    132       0.5818      2.00000
    133       0.6193      2.00000
    134       0.6709      2.00000
    135       0.7253      2.00000
    136       0.7402      2.00000
    137       0.7463      2.00000
    138       0.7467      2.00000
    139       0.7606      2.00000
    140       0.8128      2.00000
    141       0.8138      2.00000
    142       0.8283      2.00000
    143       0.8525      2.00000
    144       0.8718      2.00000
    145       0.8794      2.00000
    146       0.9212      2.00000
    147       0.9700      2.00000
    148       0.9995      2.00000
    149       1.0223      2.00000
    150       1.0587      2.00000
    151       1.0983      2.00000
    152       1.1238      2.00000
    153       1.1347      2.00000
    154       1.1862      2.00000
    155       1.1992      2.00000
    156       1.2065      2.00000
    157       1.2288      2.00000
    158       1.2398      2.00000
    159       1.2756      2.00000
    160       1.3453      2.00000
    161       1.3923      2.00000
    162       1.4340      2.00000
    163       1.4980      2.00000
    164       1.5267      2.00000
    165       1.5747      2.00000
    166       1.5904      2.00000
    167       1.6121      2.00000
    168       1.6388      2.00000
    169       1.7928      2.00000
    170       1.7970      2.00000
    171       1.9151      2.00000
    172       1.9309      2.00000
    173       2.0397      2.00000
    174       2.0527      2.00000
    175       2.0666      2.00000
    176       2.0971      2.00000
    177       3.8746      0.00000
    178       4.0376      0.00000
    179       4.0451      0.00000
    180       4.1602      0.00000
    181       4.1965      0.00000
    182       4.3803      0.00000
    183       4.3819      0.00000
    184       4.4298      0.00000
    185       4.4543      0.00000
    186       4.4733      0.00000
    187       4.5508      0.00000
    188       4.5656      0.00000
    189       4.5933      0.00000
    190       4.5975      0.00000
    191       4.6363      0.00000
    192       4.6458      0.00000
    193       4.6742      0.00000
    194       4.7370      0.00000
    195       4.7657      0.00000
    196       4.7712      0.00000
    197       4.8370      0.00000
    198       4.8666      0.00000
    199       4.8730      0.00000
    200       4.9874      0.00000
    201       5.1116      0.00000
    202       5.3048      0.00000
    203       5.6145      0.00000
    204       5.7551      0.00000
    205       5.9576      0.00000
    206       5.9796      0.00000
    207       5.9922      0.00000
    208       6.0262      0.00000
    209       7.1852      0.00000
    210       7.2900      0.00000
    211       7.3027      0.00000

 k-point     2 :       0.2500    0.0000    0.0000
  band No.  band energies     occupation 
      1     -10.8009      2.00000
      2     -10.7148      2.00000
      3     -10.6141      2.00000
      4     -10.5334      2.00000
      5     -10.4152      2.00000
      6     -10.2869      2.00000
      7     -10.1291      2.00000
      8     -10.0268      2.00000
      9      -9.8603      2.00000
     10      -9.8518      2.00000
     11      -9.8288      2.00000
     12      -9.8173      2.00000
     13      -9.8147      2.00000
     14      -9.7942      2.00000
     15      -9.7541      2.00000
     16      -9.7021      2.00000
     17      -9.7014      2.00000
     18      -9.6857      2.00000
     19      -9.6691      2.00000
     20      -9.6643      2.00000
     21      -9.6505      2.00000
     22      -9.6427      2.00000
     23      -9.6061      2.00000
     24      -9.5925      2.00000
     25      -9.5887      2.00000
     26      -9.5738      2.00000
     27      -9.5464      2.00000
     28      -9.5236      2.00000
     29      -9.5207      2.00000
     30      -9.5171      2.00000
     31      -9.5104      2.00000
     32      -9.4828      2.00000
     33      -8.1797      2.00000
     34      -8.1273      2.00000
     35      -8.0278      2.00000
     36      -7.9039      2.00000
     37      -7.7643      2.00000
     38      -7.6400      2.00000
     39      -7.5997      2.00000
     40      -7.5739      2.00000
     41      -1.7772      2.00000
     42      -1.7195      2.00000
     43      -1.7007      2.00000
     44      -1.6544      2.00000
     45      -1.6480      2.00000
     46      -1.5627      2.00000
     47      -1.5094      2.00000
     48      -1.4674      2.00000
     49      -1.4275      2.00000
     50      -1.4196      2.00000
     51      -1.4049      2.00000
     52      -1.3669      2.00000
     53      -1.3056      2.00000
     54      -1.2814      2.00000
     55      -1.2503      2.00000
     56      -1.2445      2.00000
     57      -1.2416      2.00000
     58      -1.1699      2.00000
     59      -1.1205      2.00000
     60      -1.1115      2.00000
     61      -1.0675      2.00000
     62      -1.0595      2.00000
     63      -1.0537      2.00000
     64      -0.9986      2.00000
     65      -0.9926      2.00000
     66      -0.9705      2.00000
     67      -0.9601      2.00000
     68      -0.9197      2.00000
     69      -0.9127      2.00000
     70      -0.8955      2.00000
     71      -0.8803      2.00000
     72      -0.8751      2.00000
     73      -0.8577      2.00000
     74      -0.8271      2.00000
     75      -0.7973      2.00000
     76      -0.7832      2.00000
     77      -0.7669      2.00000
     78      -0.7524      2.00000
     79      -0.7276      2.00000
     80      -0.7156      2.00000
     81      -0.6839      2.00000
     82      -0.6440      2.00000
     83      -0.6190      2.00000
     84      -0.5988      2.00000
     85      -0.5969      2.00000
     86      -0.5781      2.00000
     87      -0.5538      2.00000
     88      -0.5210      2.00000
     89      -0.4952      2.00000
     90      -0.4513      2.00000
     91      -0.4489      2.00000
     92      -0.4351      2.00000
     93      -0.4155      2.00000
     94      -0.3778      2.00000
     95      -0.3548      2.00000
     96      -0.3440      2.00000
     97      -0.3382      2.00000
     98      -0.3126      2.00000
     99      -0.2877      2.00000
    100      -0.2861      2.00000
    101      -0.2530      2.00000
    102      -0.2448      2.00000
    103      -0.2407      2.00000
    104      -0.1915      2.00000
    105      -0.1889      2.00000
    106      -0.1733      2.00000
    107      -0.1515      2.00000
    108      -0.1459      2.00000
    109      -0.1200      2.00000
    110      -0.1096      2.00000
    111      -0.0762      2.00000
    112      -0.0419      2.00000
    113       0.1031      2.00000
    114       0.1747      2.00000
    115       0.2014      2.00000
    116       0.2127      2.00000
    117       0.2613      2.00000
    118       0.2745      2.00000
    119       0.2977      2.00000
    120       0.3088      2.00000
    121       0.3327      2.00000
    122       0.3795      2.00000
    123       0.3936      2.00000
    124       0.4327      2.00000
    125       0.4403      2.00000
    126       0.4487      2.00000
    127       0.4697      2.00000
    128       0.4977      2.00000
    129       0.5245      2.00000
    130       0.5491      2.00000
    131       0.5816      2.00000
    132       0.5936      2.00000
    133       0.6455      2.00000
    134       0.6811      2.00000
    135       0.6901      2.00000
    136       0.7050      2.00000
    137       0.7562      2.00000
    138       0.7642      2.00000
    139       0.7658      2.00000
    140       0.7908      2.00000
    141       0.8118      2.00000
    142       0.8233      2.00000
    143       0.8398      2.00000
    144       0.8779      2.00000
    145       0.8788      2.00000
    146       0.9372      2.00000
    147       0.9839      2.00000
    148       0.9882      2.00000
    149       1.0264      2.00000
    150       1.0522      2.00000
    151       1.0694      2.00000
    152       1.1287      2.00000
    153       1.1502      2.00000
    154       1.1838      2.00000
    155       1.2037      2.00000
    156       1.2132      2.00000
    157       1.2305      2.00000
    158       1.2615      2.00000
    159       1.2810      2.00000
    160       1.3087      2.00000
    161       1.4521      2.00000
    162       1.4859      2.00000
    163       1.4899      2.00000
    164       1.5037      2.00000
    165       1.5818      2.00000
    166       1.6098      2.00000
    167       1.6413      2.00000
    168       1.6507      2.00000
    169       1.7700      2.00000
    170       1.7800      2.00000
    171       1.8465      2.00000
    172       1.8560      2.00000
    173       2.0245      2.00000
    174       2.0402      2.00000
    175       2.0614      2.00000
    176       2.0868      2.00000
    177       3.9043      0.00000
    178       4.0049      0.00000
    179       4.1043      0.00000
    180       4.1629      0.00000
    181       4.2328      0.00000
    182       4.3503      0.00000
    183       4.4042      0.00000
    184       4.4473      0.00000
    185       4.4592      0.00000
    186       4.4871      0.00000
    187       4.5400      0.00000
    188       4.5464      0.00000
    189       4.5546      0.00000
    190       4.6001      0.00000
    191       4.6093      0.00000
    192       4.6780      0.00000
    193       4.7120      0.00000
    194       4.7371      0.00000
    195       4.7701      0.00000
    196       4.7882      0.00000
    197       4.7884      0.00000
    198       4.8269      0.00000
    199       4.8637      0.00000
    200       4.9555      0.00000
    201       5.2265      0.00000
    202       5.3869      0.00000
    203       5.6534      0.00000
    204       5.7423      0.00000
    205       5.8686      0.00000
    206       5.9220      0.00000
    207       5.9590      0.00000
    208       5.9783      0.00000
    209       7.2189      0.00000
    210       7.4004      0.00000
    211       7.4131      0.00000

 k-point     3 :       0.5000    0.0000    0.0000
  band No.  band energies     occupation 
      1     -10.7637      2.00000
      2     -10.7618      2.00000
      3     -10.5760      2.00000
      4     -10.5750      2.00000
      5     -10.3562      2.00000
      6     -10.3548      2.00000
      7     -10.0687      2.00000
      8     -10.0668      2.00000
      9      -9.8581      2.00000
     10      -9.8557      2.00000
     11      -9.8242      2.00000
     12      -9.8221      2.00000
     13      -9.8085      2.00000
     14      -9.8081      2.00000
     15      -9.7253      2.00000
     16      -9.7248      2.00000
     17      -9.6941      2.00000
     18      -9.6933      2.00000
     19      -9.6627      2.00000
     20      -9.6614      2.00000
     21      -9.6472      2.00000
     22      -9.6462      2.00000
     23      -9.5987      2.00000
     24      -9.5979      2.00000
     25      -9.5849      2.00000
     26      -9.5837      2.00000
     27      -9.5343      2.00000
     28      -9.5324      2.00000
     29      -9.5169      2.00000
     30      -9.5143      2.00000
     31      -9.5017      2.00000
     32      -9.4999      2.00000
     33      -8.1619      2.00000
     34      -8.1594      2.00000
     35      -7.9699      2.00000
     36      -7.9684      2.00000
     37      -7.7001      2.00000
     38      -7.6999      2.00000
     39      -7.5797      2.00000
     40      -7.5786      2.00000
     41      -1.7388      2.00000
     42      -1.7376      2.00000
     43      -1.6890      2.00000
     44      -1.6877      2.00000
     45      -1.6006      2.00000
     46      -1.5976      2.00000
     47      -1.5053      2.00000
     48      -1.5021      2.00000
     49      -1.4375      2.00000
     50      -1.4373      2.00000
     51      -1.3764      2.00000
     52      -1.3748      2.00000
     53      -1.2889      2.00000
     54      -1.2884      2.00000
     55      -1.2538      2.00000
     56      -1.2503      2.00000
     57      -1.1679      2.00000
     58      -1.1668      2.00000
     59      -1.1652      2.00000
     60      -1.1622      2.00000
     61      -1.0743      2.00000
     62      -1.0732      2.00000
     63      -1.0332      2.00000
     64      -1.0272      2.00000
     65      -0.9932      2.00000
     66      -0.9913      2.00000
     67      -0.9431      2.00000
     68      -0.9399      2.00000
     69      -0.8968      2.00000
     70      -0.8929      2.00000
     71      -0.8682      2.00000
     72      -0.8658      2.00000
     73      -0.8474      2.00000
     74      -0.8447      2.00000
     75      -0.7761      2.00000
     76      -0.7739      2.00000
     77      -0.7608      2.00000
     78      -0.7542      2.00000
     79      -0.7159      2.00000
     80      -0.7142      2.00000
     81      -0.6754      2.00000
     82      -0.6706      2.00000
     83      -0.6014      2.00000
     84      -0.6004      2.00000
     85      -0.5489      2.00000
     86      -0.5478      2.00000
     87      -0.5378      2.00000
     88      -0.5340      2.00000
     89      -0.4895      2.00000
     90      -0.4894      2.00000
     91      -0.4447      2.00000
     92      -0.4425      2.00000
     93      -0.3887      2.00000
     94      -0.3858      2.00000
     95      -0.3490      2.00000
     96      -0.3480      2.00000
     97      -0.3093      2.00000
     98      -0.3075      2.00000
     99      -0.2928      2.00000
    100      -0.2893      2.00000
    101      -0.2619      2.00000
    102      -0.2610      2.00000
    103      -0.1893      2.00000
    104      -0.1891      2.00000
    105      -0.1796      2.00000
    106      -0.1782      2.00000
    107      -0.1667      2.00000
    108      -0.1659      2.00000
    109      -0.1631      2.00000
    110      -0.1622      2.00000
    111      -0.1124      2.00000
    112      -0.1117      2.00000
    113       0.1220      2.00000
    114       0.1235      2.00000
    115       0.2310      2.00000
    116       0.2324      2.00000
    117       0.3173      2.00000
    118       0.3189      2.00000
    119       0.3506      2.00000
    120       0.3535      2.00000
    121       0.3871      2.00000
    122       0.3895      2.00000
    123       0.4147      2.00000
    124       0.4169      2.00000
    125       0.4608      2.00000
    126       0.4625      2.00000
    127       0.4778      2.00000
    128       0.4822      2.00000
    129       0.5031      2.00000
    130       0.5045      2.00000
    131       0.5723      2.00000
    132       0.5727      2.00000
    133       0.6144      2.00000
    134       0.6155      2.00000
    135       0.7296      2.00000
    136       0.7315      2.00000
    137       0.7610      2.00000
    138       0.7633      2.00000
    139       0.7852      2.00000
    140       0.7862      2.00000
    141       0.8246      2.00000
    142       0.8268      2.00000
    143       0.8515      2.00000
    144       0.8526      2.00000
    145       0.8741      2.00000
    146       0.8753      2.00000
    147       0.9723      2.00000
    148       0.9735      2.00000
    149       1.0412      2.00000
    150       1.0423      2.00000
    151       1.1162      2.00000
    152       1.1169      2.00000
    153       1.1794      2.00000
    154       1.1804      2.00000
    155       1.2171      2.00000
    156       1.2175      2.00000
    157       1.2435      2.00000
    158       1.2447      2.00000
    159       1.2686      2.00000
    160       1.2695      2.00000
    161       1.4789      2.00000
    162       1.4797      2.00000
    163       1.5482      2.00000
[...]
    143       0.8298      2.00000
    144       0.9136      2.00000
    145       0.9463      2.00000
    146       0.9856      2.00000
    147       1.0161      2.00000
    148       1.0419      2.00000
    149       1.0472      2.00000
    150       1.0830      2.00000
    151       1.0963      2.00000
    152       1.1223      2.00000
    153       1.1362      2.00000
    154       1.1415      2.00000
    155       1.1878      2.00000
    156       1.1963      2.00000
    157       1.2331      2.00000
    158       1.2668      2.00000
    159       1.2746      2.00000
    160       1.2948      2.00000
    161       1.5225      2.00000
    162       1.5232      2.00000
    163       1.5840      2.00000
    164       1.5980      2.00000
    165       1.6253      2.00000
    166       1.6275      2.00000
    167       1.6658      2.00000
    168       1.6830      2.00000
    169       1.7705      2.00000
    170       1.8079      2.00000
    171       1.8770      2.00000
    172       1.8878      2.00000
    173       1.8911      2.00000
    174       1.9101      2.00000
    175       2.0513      2.00000
    176       2.0684      2.00000
    177       3.7576      0.00000
    178       3.8175      0.00000
    179       4.0022      0.00000
    180       4.0599      0.00000
    181       4.1194      0.00000
    182       4.1440      0.00000
    183       4.2745      0.00000
    184       4.3232      0.00000
    185       4.3662      0.00000
    186       4.4206      0.00000
    187       4.4807      0.00000
    188       4.4961      0.00000
    189       4.6473      0.00000
    190       4.6603      0.00000
    191       4.6947      0.00000
    192       4.7595      0.00000
    193       4.8208      0.00000
    194       4.8323      0.00000
    195       4.8459      0.00000
    196       4.8607      0.00000
    197       4.9247      0.00000
    198       4.9290      0.00000
    199       4.9892      0.00000
    200       5.0176      0.00000
    201       5.5862      0.00000
    202       5.5982      0.00000
    203       5.6242      0.00000
    204       5.6416      0.00000
    205       5.6560      0.00000
    206       5.7102      0.00000
    207       5.8021      0.00000
    208       5.8434      0.00000
    209       7.3869      0.00000
    210       7.4319      0.00000
    211       7.5541      0.00000

 k-point    36 :       0.5000    0.5000    0.5000
  band No.  band energies     occupation 
      1     -10.7397      2.00000
      2     -10.7373      2.00000
      3     -10.6107      2.00000
      4     -10.6100      2.00000
      5     -10.3540      2.00000
      6     -10.3531      2.00000
      7     -10.0858      2.00000
      8     -10.0838      2.00000
      9      -9.8764      2.00000
     10      -9.8740      2.00000
     11      -9.7846      2.00000
     12      -9.7834      2.00000
     13      -9.7587      2.00000
     14      -9.7577      2.00000
     15      -9.7171      2.00000
     16      -9.7169      2.00000
     17      -9.6951      2.00000
     18      -9.6937      2.00000
     19      -9.6713      2.00000
     20      -9.6688      2.00000
     21      -9.6656      2.00000
     22      -9.6645      2.00000
     23      -9.6030      2.00000
     24      -9.6019      2.00000
     25      -9.5813      2.00000
     26      -9.5804      2.00000
     27      -9.5528      2.00000
     28      -9.5504      2.00000
     29      -9.5171      2.00000
     30      -9.5152      2.00000
     31      -9.5070      2.00000
     32      -9.5039      2.00000
     33      -8.1633      2.00000
     34      -8.1611      2.00000
     35      -7.9691      2.00000
     36      -7.9680      2.00000
     37      -7.7286      2.00000
     38      -7.7284      2.00000
     39      -7.5517      2.00000
     40      -7.5506      2.00000
     41      -1.7528      2.00000
     42      -1.7518      2.00000
     43      -1.6487      2.00000
     44      -1.6472      2.00000
     45      -1.6037      2.00000
     46      -1.5995      2.00000
     47      -1.5124      2.00000
     48      -1.5093      2.00000
     49      -1.4572      2.00000
     50      -1.4566      2.00000
     51      -1.4275      2.00000
     52      -1.4261      2.00000
     53      -1.3488      2.00000
     54      -1.3471      2.00000
     55      -1.2553      2.00000
     56      -1.2523      2.00000
     57      -1.2383      2.00000
     58      -1.2333      2.00000
     59      -1.1086      2.00000
     60      -1.1062      2.00000
     61      -1.0124      2.00000
     62      -1.0106      2.00000
     63      -0.9777      2.00000
     64      -0.9728      2.00000
     65      -0.9630      2.00000
     66      -0.9600      2.00000
     67      -0.9360      2.00000
     68      -0.9351      2.00000
     69      -0.8835      2.00000
     70      -0.8785      2.00000
     71      -0.8531      2.00000
     72      -0.8493      2.00000
     73      -0.8373      2.00000
     74      -0.8364      2.00000
     75      -0.8102      2.00000
     76      -0.8086      2.00000
     77      -0.8009      2.00000
     78      -0.7946      2.00000
     79      -0.7114      2.00000
     80      -0.7102      2.00000
     81      -0.6629      2.00000
     82      -0.6614      2.00000
     83      -0.5948      2.00000
     84      -0.5909      2.00000
     85      -0.5584      2.00000
     86      -0.5569      2.00000
     87      -0.5183      2.00000
     88      -0.5177      2.00000
     89      -0.4822      2.00000
     90      -0.4819      2.00000
     91      -0.4450      2.00000
     92      -0.4439      2.00000
     93      -0.3709      2.00000
     94      -0.3682      2.00000
     95      -0.3510      2.00000
     96      -0.3502      2.00000
     97      -0.3240      2.00000
     98      -0.3239      2.00000
     99      -0.2790      2.00000
    100      -0.2768      2.00000
    101      -0.2757      2.00000
    102      -0.2720      2.00000
    103      -0.2229      2.00000
    104      -0.2204      2.00000
    105      -0.1770      2.00000
    106      -0.1758      2.00000
    107      -0.1501      2.00000
    108      -0.1475      2.00000
    109      -0.1082      2.00000
    110      -0.1079      2.00000
    111      -0.0468      2.00000
    112      -0.0457      2.00000
    113       0.0679      2.00000
    114       0.0689      2.00000
    115       0.1765      2.00000
    116       0.1778      2.00000
    117       0.2647      2.00000
    118       0.2650      2.00000
    119       0.3180      2.00000
    120       0.3207      2.00000
    121       0.3970      2.00000
    122       0.3972      2.00000
    123       0.3996      2.00000
    124       0.4020      2.00000
    125       0.4502      2.00000
    126       0.4524      2.00000
    127       0.4840      2.00000
    128       0.4880      2.00000
    129       0.5448      2.00000
    130       0.5483      2.00000
    131       0.5827      2.00000
    132       0.5839      2.00000
    133       0.6056      2.00000
    134       0.6075      2.00000
    135       0.6375      2.00000
    136       0.6377      2.00000
    137       0.7050      2.00000
    138       0.7057      2.00000
    139       0.7346      2.00000
    140       0.7365      2.00000
    141       0.7717      2.00000
    142       0.7738      2.00000
    143       0.9112      2.00000
    144       0.9131      2.00000
    145       0.9450      2.00000
    146       0.9457      2.00000
    147       1.0679      2.00000
    148       1.0693      2.00000
    149       1.0859      2.00000
    150       1.0884      2.00000
    151       1.1097      2.00000
    152       1.1108      2.00000
    153       1.1243      2.00000
    154       1.1255      2.00000
    155       1.2102      2.00000
    156       1.2104      2.00000
    157       1.2395      2.00000
    158       1.2407      2.00000
    159       1.3043      2.00000
    160       1.3047      2.00000
    161       1.5167      2.00000
    162       1.5174      2.00000
    163       1.6174      2.00000
    164       1.6216      2.00000
    165       1.6231      2.00000
    166       1.6252      2.00000
    167       1.7346      2.00000
    168       1.7367      2.00000
    169       1.8066      2.00000
    170       1.8079      2.00000
    171       1.8750      2.00000
    172       1.8815      2.00000
    173       1.9007      2.00000
    174       1.9036      2.00000
    175       2.0608      2.00000
    176       2.0614      2.00000
    177       3.7445      0.00000
    178       3.7464      0.00000
    179       3.9497      0.00000
    180       3.9525      0.00000
    181       4.0770      0.00000
    182       4.0781      0.00000
    183       4.2633      0.00000
    184       4.2642      0.00000
    185       4.3534      0.00000
    186       4.3542      0.00000
    187       4.4601      0.00000
    188       4.4625      0.00000
    189       4.6534      0.00000
    190       4.6568      0.00000
    191       4.7407      0.00000
    192       4.7411      0.00000
    193       4.8567      0.00000
    194       4.8585      0.00000
    195       4.8886      0.00000
    196       4.8892      0.00000
    197       4.9922      0.00000
    198       4.9935      0.00000
    199       5.0663      0.00000
    200       5.0705      0.00000
    201       5.5760      0.00000
    202       5.5835      0.00000
    203       5.6077      0.00000
    204       5.6094      0.00000
    205       5.6402      0.00000
    206       5.6421      0.00000
    207       5.8363      0.00000
    208       5.8414      0.00000
    209       7.2727      0.00000
    210       7.2746      0.00000
    211       7.5433      0.00000


--------------------------------------------------------------------------------------------------------


 soft charge-density along one line, spin component           1
         0         1         2         3         4         5         6         7         8         9
 total charge-density along one line
 
 pseudopotential strength for first ion, spin component:           1
 -6.438   0.001  -0.001  -0.000  -0.001  -6.573   0.001  -0.001
  0.001  -6.433  -0.000   0.000   0.000   0.001  -6.568  -0.000
 -0.001  -0.000  -6.428   0.001   0.005  -0.001  -0.000  -6.564
 -0.000   0.000   0.001  -6.441   0.001  -0.000   0.000   0.001
 -0.001   0.000   0.005   0.001  -6.431  -0.001   0.000   0.005
 -6.573   0.001  -0.001  -0.000  -0.001  -6.678   0.001  -0.001
  0.001  -6.568  -0.000   0.000   0.000   0.001  -6.673  -0.000
 -0.001  -0.000  -6.564   0.001   0.005  -0.001  -0.000  -6.669
 -0.000   0.000   0.001  -6.576   0.001  -0.000   0.000   0.001
 -0.001   0.000   0.005   0.001  -6.567  -0.001   0.000   0.005
  0.000   0.000   0.001   0.001   0.001   0.000   0.000   0.001
  0.000   0.001   0.001   0.001   0.001   0.000   0.001   0.001
 -0.006   0.006  -0.001   0.000  -0.001  -0.006   0.006  -0.001
  0.000   0.001   0.008  -0.006   0.000   0.000   0.001   0.008
  0.002   0.000   0.004   0.006  -0.007   0.002   0.000   0.004
 -0.008   0.008  -0.001   0.000  -0.002  -0.007   0.008  -0.001
  0.000   0.002   0.010  -0.007   0.000   0.000   0.002   0.009
  0.002   0.000   0.005   0.008  -0.008   0.002   0.000   0.005
 total augmentation occupancy for first ion, spin component:           1
  2.298   0.006  -0.066  -0.003  -0.145  -0.300  -0.012   0.065  -0.001   0.128  -0.063   0.013   0.043  -0.000   0.010  -0.005
  0.006   2.279   0.006   0.006  -0.056  -0.012  -0.300  -0.010  -0.009   0.055  -0.064   0.014  -0.022   0.000   0.004   0.004
 -0.066   0.006   4.229   0.075   0.192   0.065  -0.010  -2.069  -0.075  -0.175  -0.180   0.029  -0.019   0.134   0.120   0.001
 -0.003   0.006   0.075   2.296   0.114  -0.001  -0.009  -0.075  -0.319  -0.113  -0.145   0.024   0.000   0.066  -0.028  -0.000
 -0.145  -0.056   0.192   0.114   3.914   0.128   0.055  -0.175  -0.113  -1.759   0.098  -0.007  -0.011   0.007  -0.184   0.000
 -0.300  -0.012   0.065  -0.001   0.128   0.286   0.017  -0.064   0.004  -0.114   0.057  -0.014  -0.031   0.000  -0.011   0.002
 -0.012  -0.300  -0.010  -0.009   0.055   0.017   0.302   0.013   0.012  -0.053   0.055  -0.013   0.014  -0.002  -0.003  -0.001
  0.065  -0.010  -2.069  -0.075  -0.175  -0.064   0.013   1.910   0.075   0.160   0.157  -0.030   0.017  -0.126  -0.108  -0.001
 -0.001  -0.009  -0.075  -0.319  -0.113   0.004   0.012   0.075   0.323   0.112   0.132  -0.028  -0.000  -0.050   0.018   0.000
  0.128   0.055  -0.175  -0.113  -1.759  -0.114  -0.053   0.160   0.112   1.605  -0.089   0.014   0.012  -0.005   0.167  -0.001
 -0.063  -0.064  -0.180  -0.145   0.098   0.057   0.055   0.157   0.132  -0.089   1.438  -0.307  -0.012  -0.045   0.048   0.001
  0.013   0.014   0.029   0.024  -0.007  -0.014  -0.013  -0.030  -0.028   0.014  -0.307   0.070   0.003   0.009  -0.011  -0.000
  0.043  -0.022  -0.019   0.000  -0.011  -0.031   0.014   0.017  -0.000   0.012  -0.012   0.003   0.090   0.003   0.004  -0.006
 -0.000   0.000   0.134   0.066   0.007   0.000  -0.002  -0.126  -0.050  -0.005  -0.045   0.009   0.003   0.100   0.009  -0.000
  0.010   0.004   0.120  -0.028  -0.184  -0.011  -0.003  -0.108   0.018   0.167   0.048  -0.011   0.004   0.009   0.078  -0.000
 -0.005   0.004   0.001  -0.000   0.000   0.002  -0.001  -0.001   0.000  -0.001   0.001  -0.000  -0.006  -0.000  -0.000   0.000
 -0.000   0.001  -0.004  -0.006   0.000   0.000   0.000   0.008   0.003   0.000   0.004  -0.001  -0.000  -0.007  -0.001   0.000
  0.000  -0.000  -0.005   0.005   0.007   0.001   0.000   0.007  -0.001  -0.011  -0.005   0.001  -0.000  -0.001  -0.005   0.000


------------------------ aborting loop because EDIFF is reached ----------------------------------------


 


 total charge     
 
# of ion       s       p       d       tot
------------------------------------------
    1        0.241   0.151   9.320   9.713
    2        0.253   0.159   9.312   9.724
    3        0.241   0.151   9.320   9.712
    4        0.239   0.147   9.323   9.709
    5        0.238   0.147   9.323   9.709
    6        0.253   0.159   9.312   9.724
    7        0.241   0.152   9.320   9.713
    8        0.241   0.152   9.320   9.713
    9        1.833   1.401   0.135   3.370
   10        1.834   1.401   0.138   3.374
   11        1.833   1.401   0.136   3.370
   12        1.834   1.402   0.139   3.374
   13        1.835   1.398   0.139   3.373
   14        1.834   1.401   0.138   3.373
   15        1.834   1.401   0.139   3.374
   16        1.835   1.398   0.139   3.372
   17        1.514   2.742   0.017   4.274
   18        1.518   2.742   0.013   4.273
   19        1.518   2.742   0.011   4.271
   20        1.518   2.742   0.012   4.272
   21        1.518   2.742   0.012   4.272
   22        1.518   2.743   0.012   4.273
   23        1.518   2.742   0.011   4.271
   24        1.514   2.742   0.017   4.274
   25        1.514   2.743   0.015   4.272
   26        1.517   2.745   0.013   4.275
   27        1.516   2.743   0.015   4.274
   28        1.513   2.748   0.016   4.277
   29        1.515   2.743   0.015   4.272
   30        1.516   2.744   0.015   4.274
   31        1.517   2.746   0.013   4.276
   32        1.513   2.748   0.016   4.277
   33        1.518   2.746   0.012   4.276
   34        1.513   2.748   0.016   4.277
   35        1.514   2.743   0.015   4.273
   36        1.516   2.743   0.015   4.274
   37        1.516   2.744   0.015   4.274
   38        1.513   2.748   0.016   4.277
   39        1.515   2.743   0.015   4.272
   40        1.517   2.746   0.013   4.276
   41        1.518   2.742   0.011   4.271
   42        1.514   2.743   0.017   4.274
   43        1.518   2.742   0.012   4.273
   44        1.518   2.743   0.012   4.273
   45        1.518   2.742   0.011   4.271
   46        1.519   2.742   0.012   4.272
   47        1.514   2.742   0.017   4.274
   48        1.518   2.742   0.013   4.273
--------------------------------------------------
tot         65.138 100.219  76.096 241.452
 


--------------------------------------------------------------------------------------------------------



  FREE ENERGIE OF THE ION-ELECTRON SYSTEM (eV)
  ---------------------------------------------------
  free  energy   TOTEN  =      -119.96738317 eV

  energy  without entropy=     -119.96738317  energy(sigma->0) =     -119.96738317
 


--------------------------------------------------------------------------------------------------------




--------------------------------------------------------------------------------------------------------


 writing wavefunctions
     LOOP+:  cpu time  114.9795: real time  115.5140
    4ORBIT:  cpu time    0.0000: real time    0.0000
 


 total charge     
 
# of ion       s       p       d       tot
------------------------------------------
    1        0.241   0.151   9.320   9.713
    2        0.253   0.159   9.312   9.724
    3        0.241   0.151   9.320   9.712
    4        0.239   0.147   9.323   9.709
    5        0.238   0.147   9.323   9.709
    6        0.253   0.159   9.312   9.724
    7        0.241   0.152   9.320   9.713
    8        0.241   0.152   9.320   9.713
    9        1.833   1.401   0.135   3.370
   10        1.834   1.401   0.138   3.374
   11        1.833   1.401   0.136   3.370
   12        1.834   1.402   0.139   3.374
   13        1.835   1.398   0.139   3.373
   14        1.834   1.401   0.138   3.373
   15        1.834   1.401   0.139   3.374
   16        1.835   1.398   0.139   3.372
   17        1.514   2.742   0.017   4.274
   18        1.518   2.742   0.013   4.273
   19        1.518   2.742   0.011   4.271
   20        1.518   2.742   0.012   4.272
   21        1.518   2.742   0.012   4.272
   22        1.518   2.743   0.012   4.273
   23        1.518   2.742   0.011   4.271
   24        1.514   2.742   0.017   4.274
   25        1.514   2.743   0.015   4.272
   26        1.517   2.745   0.013   4.275
   27        1.516   2.743   0.015   4.274
   28        1.513   2.748   0.016   4.277
   29        1.515   2.743   0.015   4.272
   30        1.516   2.744   0.015   4.274
   31        1.517   2.746   0.013   4.276
   32        1.513   2.748   0.016   4.277
   33        1.518   2.746   0.012   4.276
   34        1.513   2.748   0.016   4.277
   35        1.514   2.743   0.015   4.273
   36        1.516   2.743   0.015   4.274
   37        1.516   2.744   0.015   4.274
   38        1.513   2.748   0.016   4.277
   39        1.515   2.743   0.015   4.272
   40        1.517   2.746   0.013   4.276
   41        1.518   2.742   0.011   4.271
   42        1.514   2.743   0.017   4.274
   43        1.518   2.742   0.012   4.273
   44        1.518   2.743   0.012   4.273
   45        1.518   2.742   0.011   4.271
   46        1.519   2.742   0.012   4.272
   47        1.514   2.742   0.017   4.274
   48        1.518   2.742   0.013   4.273
--------------------------------------------------
tot         65.138 100.219  76.096 241.452
 
 BZINTS: Fermi energy:    2.097112;  352.000000 electrons
         Band energy:-0.746528E+03;  BLOECHL correction:   -0.000000

 total amount of memory used by VASP MPI-rank0  2761676. kBytes
=======================================================================

   base      :      30000. kBytes
   nonl-proj :     301348. kBytes
   fftplans  :      34720. kBytes
   grid      :      70000. kBytes
   one-center:        746. kBytes
   wavefun   :    2324862. kBytes
 
  
  
 General timing and accounting informations for this job:
 ========================================================
  
                  Total CPU time used (sec):      155.201
                            User time (sec):      149.585
                          System time (sec):        5.616
                         Elapsed time (sec):      158.610
  
                   Maximum memory used (kb):     4318884.
                   Average memory used (kb):           0.
  
                          Minor page faults:       424148
                          Major page faults:           31
                 Voluntary context switches:         2725
