 vasp.6.1.0 28Jan20 (build Jan 13 2021 21:44:47) complex                        
  
 executed on             LinuxIFC date 2021.09.12  19:23:40
 running on    9 total cores
 distrk:  each k-point on    1 cores,    9 groups
 distr:  one band on NCORE=   1 cores,    1 groups


--------------------------------------------------------------------------------------------------------


 INCAR:
 POTCAR:    PAW_PBE Ag 02Apr2005                  
 POTCAR:    PAW_PBE Bi 08Apr2002                  
 POTCAR:    PAW_PBE I 08Apr2002                   
 -----------------------------------------------------------------------------
|                                                                             |
|           W    W    AA    RRRRR   N    N  II  N    N   GGGG   !!!           |
|           W    W   A  A   R    R  NN   N  II  NN   N  G    G  !!!           |
|           W    W  A    A  R    R  N N  N  II  N N  N  G       !!!           |
|           W WW W  AAAAAA  RRRRR   N  N N  II  N  N N  G  GGG   !            |
|           WW  WW  A    A  R   R   N   NN  II  N   NN  G    G                |
|           W    W  A    A  R    R  N    N  II  N    N   GGGG   !!!           |
|                                                                             |
|     For optimal performance we recommend to set                             |
|       NCORE = 4 - approx SQRT(number of cores).                             |
|     NCORE specifies how many cores store one orbital (NPAR=cpu/NCORE).      |
|     This setting can greatly improve the performance of VASP for DFT.       |
|     The default, NCORE=1 might be grossly inefficient on modern             |
|     multi-core architectures or massively parallel machines. Do your        |
|     own testing!!!!                                                         |
|     Unfortunately you need to use the default for GW and RPA                |
|     calculations (for HF NCORE is supported but not extensively tested      |
|     yet).                                                                   |
|                                                                             |
 -----------------------------------------------------------------------------

 POTCAR:    PAW_PBE Ag 02Apr2005                  
   VRHFIN =Ag : s1 d10                                                                              
   LEXCH  = PE                                                                                      
   EATOM  =  1037.2675 eV,   76.2370 Ry                                                             
                                                                                                    
   TITEL  = PAW_PBE Ag 02Apr2005                                                                    
   LULTRA =        F    use ultrasoft PP ?                                                          
   IUNSCR =        1    unscreen: 0-lin 1-nonlin 2-no                                               
   RPACOR =    2.000    partial core radius                                                         
   POMASS =  107.868; ZVAL   =   11.000    mass and valenz                                          
   RCORE  =    2.500    outmost cutoff radius                                                       
   RWIGS  =    2.840; RWIGS  =    1.503    wigner-seitz radius (au A)                               
   ENMAX  =  249.844; ENMIN  =  187.383 eV                                                          
   ICORE  =        3    local potential                                                             
   LCOR   =        T    correct aug charges                                                         
   LPAW   =        T    paw PP                                                                      
   EAUG   =  412.496                                                                                
   DEXC   =    0.000                                                                                
   RMAX   =    2.560    core radius for proj-oper                                                   
   RAUG   =    1.300    factor for augmentation sphere                                              
   RDEP   =    2.576    radius for radial grids                                                     
   RDEPT  =    2.072    core radius for aug-charge                                                  
                                                                                                    
   Atomic configuration                                                                             
   12 entries                                                                                       
     n  l   j            E        occ.                                                              
     1  0  0.50    -25324.9161   2.0000                                                             
     2  0  0.50     -3728.5341   2.0000                                                             
     2  1  1.50     -3344.0404   6.0000                                                             
     3  0  0.50      -683.5581   2.0000                                                             
     3  1  1.50      -557.3225   6.0000                                                             
     3  2  2.50      -358.3853  10.0000                                                             
     4  0  0.50       -95.0341   2.0000                                                             
     4  1  1.50       -58.5511   6.0000                                                             
     4  2  2.50        -7.4440  10.0000                                                             
     5  0  0.50        -4.4045   1.0000                                                             
     5  1  0.50        -1.3606   0.0000                                                             
     4  3  2.50        -1.3606   0.0000                                                             
   Description                                                                                      
     l       E           TYP  RCUT    TYP  RCUT                                                     
     2     -7.4439781     23  2.400                                                                 
     2     -8.8045607     23  2.400                                                                 
     0     -4.4044681     23  2.400                                                                 
     0      1.9520038     23  2.400                                                                 
     1     -1.3605826     23  2.500                                                                 
     1     27.2116520     23  2.500                                                                 
     3     -4.0817478     23  2.400                                                                 
  local pseudopotential read in
  partial core-charges read in
  partial kinetic energy density read in
  atomic valenz-charges read in
  non local Contribution for L=           2  read in
    real space projection operators read in
  non local Contribution for L=           2  read in
    real space projection operators read in
  non local Contribution for L=           0  read in
    real space projection operators read in
  non local Contribution for L=           0  read in
    real space projection operators read in
  non local Contribution for L=           1  read in
    real space projection operators read in
  non local Contribution for L=           1  read in
    real space projection operators read in
    PAW grid and wavefunctions read in
 
   number of l-projection  operators is LMAX  =           6
   number of lm-projection operators is LMMAX =          18
 
 POTCAR:    PAW_PBE Bi 08Apr2002                  
   VRHFIN =Bi:                                                                                      
   LEXCH  = PE                                                                                      
   EATOM  =   150.8133 eV,   11.0845 Ry                                                             
                                                                                                    
   TITEL  = PAW_PBE Bi 08Apr2002                                                                    
   LULTRA =        F    use ultrasoft PP ?                                                          
   IUNSCR =        1    unscreen: 0-lin 1-nonlin 2-no                                               
   RPACOR =    2.200    partial core radius                                                         
   POMASS =  208.980; ZVAL   =    5.000    mass and valenz                                          
   RCORE  =    3.000    outmost cutoff radius                                                       
   RWIGS  =    3.090; RWIGS  =    1.635    wigner-seitz radius (au A)                               
   ENMAX  =  105.037; ENMIN  =   78.777 eV                                                          
   ICORE  =        3    local potential                                                             
   LCOR   =        T    correct aug charges                                                         
   LPAW   =        T    paw PP                                                                      
   EAUG   =  265.427                                                                                
   DEXC   =    0.000                                                                                
   RMAX   =    3.067    core radius for proj-oper                                                   
   RAUG   =    1.300    factor for augmentation sphere                                              
   RDEP   =    3.012    radius for radial grids                                                     
   RDEPT  =    2.604    core radius for aug-charge                                                  
                                                                                                    
   Atomic configuration                                                                             
   17 entries                                                                                       
     n  l   j            E        occ.                                                              
     1  0  0.50    -90639.6582   2.0000                                                             
     2  0  0.50    -16282.4667   2.0000                                                             
     2  1  1.50    -13922.8287   6.0000                                                             
     3  0  0.50     -3930.4763   2.0000                                                             
     3  1  1.50     -3256.7013   6.0000                                                             
     3  2  2.50     -2581.6169  10.0000                                                             
     4  0  0.50      -902.2614   2.0000                                                             
     4  1  1.50      -681.5915   6.0000                                                             
     4  2  2.50      -429.8249  10.0000                                                             
     4  3  3.50      -152.6004  14.0000                                                             
     5  0  0.50      -157.7156   2.0000                                                             
     5  1  1.50       -95.8054   6.0000                                                             
     5  2  2.50       -27.0806  10.0000                                                             
     6  0  0.50       -14.4732   2.0000                                                             
     6  1  1.50        -4.5702   3.0000                                                             
     6  2  2.50        -2.7212   0.0000                                                             
     5  3  2.50        -2.7212   0.0000                                                             
   Description                                                                                      
     l       E           TYP  RCUT    TYP  RCUT                                                     
     0    -14.4732299     23  3.000                                                                 
     0    -12.2452434     23  3.000                                                                 
     1     -4.5701666     23  3.000                                                                 
     1    -13.6058260     23  3.000                                                                 
     2     -2.7211652     23  3.000                                                                 
     3     -1.3605826      7  3.000                                                                 
  local pseudopotential read in
  partial core-charges read in
  partial kinetic energy density read in
  kinetic energy density of atom read in
  atomic valenz-charges read in
  non local Contribution for L=           0  read in
    real space projection operators read in
  non local Contribution for L=           0  read in
    real space projection operators read in
  non local Contribution for L=           1  read in
    real space projection operators read in
  non local Contribution for L=           1  read in
    real space projection operators read in
  non local Contribution for L=           2  read in
    real space projection operators read in
    PAW grid and wavefunctions read in
 
   number of l-projection  operators is LMAX  =           5
   number of lm-projection operators is LMMAX =          13
 
 POTCAR:    PAW_PBE I 08Apr2002                   
   VRHFIN =I : s2p5                                                                                 
   LEXCH  = PE                                                                                      
   EATOM  =   315.8678 eV,   23.2156 Ry                                                             
                                                                                                    
   TITEL  = PAW_PBE I 08Apr2002                                                                     
   LULTRA =        F    use ultrasoft PP ?                                                          
   IUNSCR =        1    unscreen: 0-lin 1-nonlin 2-no                                               
   RPACOR =    2.200    partial core radius                                                         
   POMASS =  126.904; ZVAL   =    7.000    mass and valenz                                          
   RCORE  =    2.300    outmost cutoff radius                                                       
   RWIGS  =    2.810; RWIGS  =    1.487    wigner-seitz radius (au A)                               
   ENMAX  =  175.647; ENMIN  =  131.735 eV                                                          
   ICORE  =        3    local potential                                                             
   LCOR   =        T    correct aug charges                                                         
   LPAW   =        T    paw PP                                                                      
   EAUG   =  370.139                                                                                
   DEXC   =    0.000                                                                                
   RMAX   =    2.359    core radius for proj-oper                                                   
   RAUG   =    1.300    factor for augmentation sphere                                              
   RDEP   =    2.392    radius for radial grids                                                     
   RDEPT  =    2.170    core radius for aug-charge                                                  
                                                                                                    
   Atomic configuration                                                                             
   13 entries                                                                                       
     n  l   j            E        occ.                                                              
     1  0  0.50    -32976.3739   2.0000                                                             
     2  0  0.50     -5094.5933   2.0000                                                             
     2  1  1.50     -4572.0131   6.0000                                                             
     3  0  0.50     -1028.2813   2.0000                                                             
     3  1  1.50      -859.0250   6.0000                                                             
     3  2  2.50      -605.7620  10.0000                                                             
     4  0  0.50      -180.5540   2.0000                                                             
     4  1  1.50      -127.5306   6.0000                                                             
     4  2  2.50       -50.2720  10.0000                                                             
     5  0  0.50       -17.4058   2.0000                                                             
     5  1  0.50        -7.0851   5.0000                                                             
     5  2  1.50        -7.0750   0.0000                                                             
     4  3  2.50        -7.0750   0.0000                                                             
   Description                                                                                      
     l       E           TYP  RCUT    TYP  RCUT                                                     
     0    -17.4058016     23  2.300                                                                 
     0    -18.7663842     23  2.300                                                                 
     1     -7.0850686     23  2.300                                                                 
     1     -4.2150896     23  2.300                                                                 
     2     -7.0750295     23  2.300                                                                 
     3     -1.3605826     23  2.300                                                                 
  local pseudopotential read in
  partial core-charges read in
  partial kinetic energy density read in
  atomic valenz-charges read in
  non local Contribution for L=           0  read in
    real space projection operators read in
  non local Contribution for L=           0  read in
    real space projection operators read in
  non local Contribution for L=           1  read in
    real space projection operators read in
  non local Contribution for L=           1  read in
    real space projection operators read in
  non local Contribution for L=           2  read in
    real space projection operators read in
    PAW grid and wavefunctions read in
 
   number of l-projection  operators is LMAX  =           5
   number of lm-projection operators is LMMAX =          13
 
 -----------------------------------------------------------------------------
|                                                                             |
|               ----> ADVICE to this user running VASP <----                  |
|                                                                             |
|     You have a (more or less) 'large supercell' and for larger cells it     |
|     might be more efficient to use real-space projection operators.         |
|     Therefore, try LREAL= Auto in the INCAR file.                           |
|     Mind: For very accurate calculation, you might also keep the            |
|     reciprocal projection scheme (i.e. LREAL=.FALSE.).                      |
|                                                                             |
 -----------------------------------------------------------------------------

  PAW_PBE Ag 02Apr2005                  :
 energy of atom  1       EATOM=-1037.2675
 kinetic energy error for atom=    0.0686 (will be added to EATOM!!)
  PAW_PBE Bi 08Apr2002                  :
 energy of atom  2       EATOM= -150.8133
 kinetic energy error for atom=    0.0004 (will be added to EATOM!!)
  PAW_PBE I 08Apr2002                   :
 energy of atom  3       EATOM= -315.8678
 kinetic energy error for atom=    0.0044 (will be added to EATOM!!)
 
 
 POSCAR: Generation Seed Number
  positions in direct lattice
  velocities in cartesian coordinates
 exchange correlation table for  LEXCH =        8
   RHO(1)=    0.500       N(1)  =     2000
   RHO(2)=  100.500       N(2)  =     4000
 


--------------------------------------------------------------------------------------------------------


 ion  position               nearest neighbor table
   1  0.996  0.023  0.989-  34 2.94  25 2.99  21 3.07  17 3.12  33 3.19  27 3.56
   2  0.225  0.250  0.976-  19 2.96  17 2.96  25 2.97  42 2.97
   3  0.998  0.498  0.503-  24 3.02  36 3.03  20 3.07  35 3.08  26 3.25  28 3.30
   4  0.511  0.977  0.505-  22 2.94  32 2.99  38 3.07  37 3.13  18 3.17  30 3.56
   5  0.753  0.995  0.747-  22 3.02  34 3.03  38 3.07  21 3.08  48 3.22  46 3.34
   6  0.755  0.523  0.261-  24 2.94  47 2.99  35 3.07  39 3.14  23 3.15  45 3.56
   7  0.525  0.750  0.276-  37 2.96  39 2.96  32 2.97  47 2.97
   8  0.241  0.477  0.745-  36 2.94  42 2.99  20 3.07  40 3.14  19 3.16  44 3.56
   9  0.498  0.500  0.003-  19 3.07  39 3.07  29 3.14  31 3.14  23 3.19  40 3.19
  10  0.752  0.754  0.002-  21 3.03  47 3.05  27 3.13  31 3.14  23 3.19  48 3.21
  11  0.999  0.253  0.249-  35 3.03  25 3.06  45 3.12  41 3.14  33 3.19  26 3.20
  12  0.001  0.750  0.750-  28 3.11  36 3.11  34 3.11  48 3.12  44 3.14  27 3.14
  13  0.252  0.000  0.249-  17 3.07  37 3.07  41 3.13  43 3.14  33 3.18  18 3.18
  14  0.499  0.247  0.749-  38 3.03  42 3.06  30 3.13  29 3.14  46 3.20  40 3.20
  15  0.750  0.250  0.501-  46 3.11  22 3.11  24 3.11  26 3.11  30 3.14  45 3.14
  16  0.251  0.747  0.501-  20 3.03  32 3.06  44 3.13  43 3.14  18 3.19  28 3.20
  17  0.241  0.020  0.008-   2 2.96  13 3.07   1 3.12
  18  0.262  0.997  0.498-   4 3.17  13 3.18  16 3.19
  19  0.258  0.480  0.992-   2 2.96   9 3.07   8 3.16
  20  0.239  0.508  0.505-  16 3.03   3 3.07   8 3.07
  21  0.756  0.992  0.989-  10 3.03   1 3.07   5 3.08
  22  0.740  0.006  0.510-   4 2.94   5 3.02  15 3.11
  23  0.748  0.503  0.013-   6 3.15   9 3.19  10 3.19
  24  0.761  0.494  0.490-   6 2.94   3 3.02  15 3.11
  25  0.994  0.257  0.009-   2 2.97   1 2.99  11 3.06
  26  0.995  0.243  0.501-  15 3.11  11 3.20   3 3.25
  27  0.997  0.743  0.997-  10 3.13  12 3.14   1 3.56
  28  0.000  0.757  0.506-  12 3.11  16 3.20   3 3.30
  29  0.510  0.254  0.996-   9 3.14  14 3.14
  30  0.504  0.257  0.504-  14 3.13  15 3.14   4 3.56
  31  0.505  0.746  0.991-   9 3.14  10 3.14
  32  0.492  0.743  0.506-   7 2.97   4 2.99  16 3.06
  33  0.002  0.003  0.239-  13 3.18   1 3.19  11 3.19
  34  0.990  0.994  0.760-   1 2.94   5 3.03  12 3.11
  35  0.995  0.492  0.261-  11 3.03   6 3.07   3 3.08
  36  0.011  0.506  0.740-   8 2.94   3 3.03  12 3.11
  37  0.493  0.980  0.260-   7 2.96  13 3.07   4 3.13
  38  0.511  0.008  0.744-  14 3.03   4 3.07   5 3.07
  39  0.509  0.520  0.243-   7 2.96   9 3.07   6 3.14
  40  0.487  0.498  0.753-   8 3.14   9 3.19  14 3.20
  41  0.246  0.246  0.260-  13 3.13  11 3.14
  42  0.259  0.243  0.745-   2 2.97   8 2.99  14 3.06
  43  0.241  0.754  0.255-  13 3.14  16 3.14
  44  0.247  0.757  0.747-  16 3.13  12 3.14   8 3.56
  45  0.754  0.243  0.254-  11 3.12  15 3.14   6 3.56
  46  0.750  0.258  0.745-  15 3.11  14 3.20   5 3.34
  47  0.756  0.757  0.242-   7 2.97   6 2.99  10 3.05
  48  0.756  0.742  0.750-  12 3.12  10 3.21   5 3.22
 
 -----------------------------------------------------------------------------
|                                                                             |
|           W    W    AA    RRRRR   N    N  II  N    N   GGGG   !!!           |
|           W    W   A  A   R    R  NN   N  II  NN   N  G    G  !!!           |
|           W    W  A    A  R    R  N N  N  II  N N  N  G       !!!           |
|           W WW W  AAAAAA  RRRRR   N  N N  II  N  N N  G  GGG   !            |
|           WW  WW  A    A  R   R   N   NN  II  N   NN  G    G                |
|           W    W  A    A  R    R  N    N  II  N    N   GGGG   !!!           |
|                                                                             |
|     The determination of the symmetry of your systems shows a strong        |
|     dependence on the tolerance parameter SYMPREC. This is often the        |
|     result of "noise" in the structural parameters (lattice vectors         |
|     and/or ionic positions). Set NWRITE=3 for more details.                 |
|                                                                             |
 -----------------------------------------------------------------------------

  LATTYP: Found a base centered monoclinic cell.
 ALAT       =    17.9895498196
 B/A-ratio  =     0.9998578969
 C/A-ratio  =     2.1214286142
 COS(beta)  =    -0.9428380703
  
  Lattice vectors:
  
 A1 = (   0.0011539339,   0.0008557331,  12.7196205978)
 A2 = (   0.0012417373,  12.7196369983,   0.0009517810)
 A3 = ( -12.7228396596, -25.4419164021, -25.4419823225)


Analysis of symmetry for initial positions (statically):
=====================================================================
 Subroutine PRICEL returns:
 Original cell was already a primitive cell.
 

 Routine SETGRP: Setting up the symmetry group for a 
 base centered monoclinic supercell.


 Subroutine GETGRP returns: Found  1 space group operations
 (whereof  1 operations were pure point group operations)
 out of a pool of  4 trial point group operations.


The static configuration has the point symmetry C_1 .


Analysis of symmetry for dynamics (positions and initial velocities):
=====================================================================
 Subroutine PRICEL returns:
 Original cell was already a primitive cell.
 

 Routine SETGRP: Setting up the symmetry group for a 
 base centered monoclinic supercell.


 Subroutine GETGRP returns: Found  1 space group operations
 (whereof  1 operations were pure point group operations)
 out of a pool of  4 trial point group operations.


The dynamic configuration has the point symmetry C_1 .


 Subroutine INISYM returns: Found  1 space group operations
 (whereof  1 operations are pure point group operations),
 and found     1 'primitive' translations


----------------------------------------------------------------------------------------

                                     Primitive cell                                     

  volume of cell :    2057.6397

  direct lattice vectors                    reciprocal lattice vectors
    12.718048317  0.000930939  0.000837565     0.078628418 -0.000007675 -0.000007133
     0.001241737 12.719636998  0.000951781    -0.000005754  0.078618597 -0.000005289
     0.001153934  0.000855733 12.719620598    -0.000005177 -0.000005882  0.078618698

  length of vectors
    12.718048379 12.719637095 12.719620679     0.078628418  0.078618597  0.078618698

  position of ions in fractional coordinates (direct lattice)
     0.995808540  0.023291248  0.988912463
     0.224760838  0.250208696  0.975617346
     0.998141220  0.497971300  0.502799031
     0.511082814  0.976744103  0.504993640
     0.752719169  0.995357337  0.747155192
     0.755395186  0.523119136  0.260514770
     0.524527453  0.750359005  0.275522875
     0.240886023  0.476738075  0.744812991
     0.497895120  0.500037071  0.002999310
     0.751812054  0.753516939  0.002069587
     0.998773436  0.253372764  0.249185430
     0.000580075  0.749816661  0.750013796
     0.252019116  0.000182824  0.248574200
     0.499153431  0.246521856  0.749102818
     0.750268255  0.250184010  0.500744129
     0.251361694  0.746579531  0.501467382
     0.240658933  0.020162241  0.008071820
     0.262419709  0.997418063  0.498348990
     0.257785818  0.479818107  0.992464120
     0.239403072  0.508389777  0.505299263
     0.756421401  0.991691073  0.989232903
     0.740439481  0.005930041  0.510367040
     0.748260660  0.502692681  0.013463090
     0.760747336  0.494425595  0.489853108
     0.994113469  0.257270380  0.009055082
     0.995056461  0.242736255  0.500795651
     0.997292339  0.743325035  0.996829110
     0.000058997  0.757167695  0.505560411
     0.509958494  0.253727122  0.995767472
     0.503687457  0.256837961  0.503559985
     0.505014512  0.746404436  0.991164802
     0.491659494  0.742712006  0.506304710
     0.002286461  0.002645465  0.238530414
     0.990244682  0.994096145  0.759776391
     0.994837083  0.491574882  0.261143566
     0.011389348  0.505665425  0.740128763
     0.492582464  0.980232109  0.259707369
     0.511421189  0.008354092  0.744430025
     0.508852453  0.520310480  0.243142995
     0.486969387  0.497562549  0.752674614
     0.245646989  0.246284155  0.259922760
     0.258713253  0.242600732  0.745069460
     0.240919487  0.753760613  0.254902326
     0.246968577  0.756886506  0.747005813
     0.753531603  0.243038245  0.253791034
     0.750236727  0.257871047  0.744929288
     0.755593443  0.757498736  0.242006403
     0.755598336  0.742390370  0.750188130

  ion indices of the primitive-cell ions
   primitive index   ion index
                 1           1
                 2           2
                 3           3
                 4           4
                 5           5
                 6           6
                 7           7
                 8           8
                 9           9
                10          10
                11          11
                12          12
                13          13
                14          14
                15          15
                16          16
                17          17
                18          18
                19          19
                20          20
                21          21
                22          22
                23          23
                24          24
                25          25
                26          26
                27          27
                28          28
                29          29
                30          30
                31          31
                32          32
                33          33
                34          34
                35          35
                36          36
                37          37
                38          38
                39          39
                40          40
                41          41
                42          42
                43          43
                44          44
                45          45
                46          46
                47          47
                48          48

----------------------------------------------------------------------------------------

 
 
 KPOINTS: agbii                                   

Automatic generation of k-mesh.
Space group operators:
 irot       det(A)        alpha          n_x          n_y          n_z        tau_x        tau_y        tau_z
    1     1.000000     0.000000     1.000000     0.000000     0.000000     0.000000     0.000000     0.000000
 TETIRR: Found    192 inequivalent tetrahedra from      384
 
 Subroutine IBZKPT returns following result:
 ===========================================
 
 Found     36 irreducible k-points:
 
 Following reciprocal coordinates:
            Coordinates               Weight
  0.000000  0.000000  0.000000      1.000000
  0.250000  0.000000 -0.000000      2.000000
  0.500000  0.000000  0.000000      1.000000
 -0.000000  0.250000  0.000000      2.000000
 -0.000000  0.000000 -0.250000      2.000000
  0.250000  0.250000 -0.000000      2.000000
 -0.250000  0.000000 -0.250000      2.000000
  0.500000  0.250000  0.000000      2.000000
  0.500000  0.000000 -0.250000      2.000000
 -0.250000  0.250000 -0.000000      2.000000
  0.250000  0.000000 -0.250000      2.000000
 -0.000000  0.500000  0.000000      1.000000
  0.000000 -0.000000  0.500000      1.000000
  0.250000  0.500000 -0.000000      2.000000
 -0.250000 -0.000000  0.500000      2.000000
  0.500000  0.500000  0.000000      1.000000
  0.500000  0.000000  0.500000      1.000000
  0.000000  0.250000  0.250000      2.000000
  0.250000  0.250000  0.250000      2.000000
  0.500000  0.250000  0.250000      2.000000
 -0.250000  0.250000  0.250000      2.000000
  0.000000  0.500000  0.250000      2.000000
  0.000000 -0.250000  0.500000      2.000000
  0.250000  0.500000  0.250000      2.000000
 -0.250000 -0.250000  0.500000      2.000000
  0.500000  0.500000  0.250000      2.000000
  0.500000 -0.250000  0.500000      2.000000
 -0.250000  0.500000  0.250000      2.000000
  0.250000 -0.250000  0.500000      2.000000
  0.000000 -0.250000  0.250000      2.000000
  0.250000 -0.250000  0.250000      2.000000
 -0.250000 -0.250000  0.250000      2.000000
  0.500000 -0.250000  0.250000      2.000000
  0.000000  0.500000  0.500000      1.000000
  0.250000  0.500000  0.500000      2.000000
  0.500000  0.500000  0.500000      1.000000
 
 Following cartesian coordinates:
            Coordinates               Weight
  0.000000  0.000000  0.000000      1.000000
  0.019657 -0.000002 -0.000002      2.000000
  0.039314 -0.000004 -0.000004      1.000000
 -0.000001  0.019655 -0.000001      2.000000
  0.000001  0.000001 -0.019655      2.000000
  0.019656  0.019653 -0.000003      2.000000
 -0.019656  0.000003 -0.019653      2.000000
  0.039313  0.019651 -0.000005      2.000000
  0.039316 -0.000002 -0.019658      2.000000
 -0.019659  0.019657  0.000000      2.000000
  0.019658 -0.000000 -0.019656      2.000000
 -0.000003  0.039309 -0.000003      1.000000
 -0.000003 -0.000003  0.039309      1.000000
  0.019654  0.039307 -0.000004      2.000000
 -0.019660 -0.000001  0.039311      2.000000
  0.039311  0.039305 -0.000006      1.000000
  0.039312 -0.000007  0.039306      1.000000
 -0.000003  0.019653  0.019653      2.000000
  0.019654  0.019651  0.019652      2.000000
  0.039311  0.019649  0.019650      2.000000
 -0.019660  0.019655  0.019655      2.000000
 -0.000004  0.039308  0.019652      2.000000
 -0.000001 -0.019658  0.039311      2.000000
  0.019653  0.039306  0.019650      2.000000
 -0.019658 -0.019656  0.039312      2.000000
  0.039310  0.039304  0.019648      2.000000
  0.039313 -0.019661  0.039307      2.000000
 -0.019661  0.039310  0.019654      2.000000
  0.019656 -0.019660  0.039309      2.000000
  0.000000 -0.019656  0.019656      2.000000
  0.019657 -0.019658  0.019654      2.000000
 -0.019657 -0.019654  0.019658      2.000000
  0.039314 -0.019660  0.019652      2.000000
 -0.000005  0.039306  0.039307      1.000000
  0.019652  0.039304  0.039305      2.000000
  0.039309  0.039303  0.039303      1.000000
 


--------------------------------------------------------------------------------------------------------




 Dimension of arrays:
   k-points           NKPTS =     36   k-points in BZ     NKDIM =     36   number of bands    NBANDS=    211
   number of dos      NEDOS =   3000   number of ions     NIONS =     48
   non local maximal  LDIM  =      6   non local SUM 2l+1 LMDIM =     18
   total plane-waves  NPLWV = 125000
   max r-space proj   IRMAX =      1   max aug-charges    IRDMAX=   5986
   dimension x,y,z NGX =    50 NGY =   50 NGZ =   50
   dimension x,y,z NGXF=   100 NGYF=  100 NGZF=  100
   support grid    NGXF=   100 NGYF=  100 NGZF=  100
   ions per type =               8   8  32
   NGX,Y,Z   is equivalent  to a cutoff of   6.54,  6.54,  6.54 a.u.
   NGXF,Y,Z  is equivalent  to a cutoff of  13.07, 13.07, 13.07 a.u.

 SYSTEM =  unknown system                          
 POSCAR =  Generation Seed Number                  

 Startparameter for this run:
   NWRITE =      2    write-flag & timer
   PREC   = normal    normal or accurate (medium, high low for compatibility)
   ISTART =      1    job   : 0-new  1-cont  2-samecut
   ICHARG =      1    charge: 1-file 2-atom 10-const
   ISPIN  =      1    spin polarized calculation?
   LNONCOLLINEAR =      F non collinear calculations
   LSORBIT =      F    spin-orbit coupling
   INIWAV =      1    electr: 0-lowe 1-rand  2-diag
   LASPH  =      F    aspherical Exc in radial PAW
   METAGGA=      F    non-selfconsistent MetaGGA calc.

 Electronic Relaxation 1
   ENCUT  =  250.0 eV  18.37 Ry    4.29 a.u.  16.40 16.40 16.40*2*pi/ulx,y,z
   ENINI  =  250.0     initial cutoff
   ENAUG  =  412.5 eV  augmentation charge cutoff
   NELM   =     60;   NELMIN=  2; NELMDL=  0     # of ELM steps 
   EDIFF  = 0.1E-05   stopping-criterion for ELM
   LREAL  =      F    real-space projection
   NLSPLINE    = F    spline interpolate recip. space projectors
   LCOMPAT=      F    compatible to vasp.4.4
   GGA_COMPAT  = T    GGA compatible to vasp.4.4-vasp.4.6
   LMAXPAW     = -100 max onsite density
   LMAXMIX     =    4 max onsite mixed and CHGCAR
   VOSKOWN=      0    Vosko Wilk Nusair interpolation
   ROPT   =    0.00000   0.00000   0.00000
 Ionic relaxation
   EDIFFG = -.1E-01   stopping-criterion for IOM
   NSW    =      0    number of steps for IOM
   NBLOCK =      1;   KBLOCK =      1    inner block; outer block 
   IBRION =     -1    ionic relax: 0-MD 1-quasi-New 2-CG
   NFREE  =      0    steps in history (QN), initial steepest desc. (CG)
   ISIF   =     -1    stress and relaxation
   IWAVPR =     10    prediction:  0-non 1-charg 2-wave 3-comb
   ISYM   =      2    0-nonsym 1-usesym 2-fastsym
   LCORR  =      T    Harris-Foulkes like correction to forces

   POTIM  = 0.5000    time-step for ionic-motion
   TEIN   =    0.0    initial temperature
   TEBEG  =    0.0;   TEEND  =   0.0 temperature during run
   SMASS  =  -3.00    Nose mass-parameter (am)
   estimated Nose-frequenzy (Omega)   =  0.10E-29 period in steps = 0.13E+47 mass=  -0.370E-26a.u.
   SCALEE = 1.0000    scale energy and forces
   NPACO  =    256;   APACO  = 16.0  distance and # of slots for P.C.
   PSTRESS=    0.0 pullay stress

  Mass of Ions in am
   POMASS = 107.87208.98126.90
  Ionic Valenz
   ZVAL   =  11.00  5.00  7.00
  Atomic Wigner-Seitz radii
   RWIGS  =  -1.00 -1.00 -1.00
  virtual crystal weights 
   VCA    =   1.00  1.00  1.00
   NELECT =     352.0000    total number of electrons
   NUPDOWN=      -1.0000    fix difference up-down

 DOS related values:
   EMIN   =  10.00;   EMAX   =-10.00  energy-range for DOS
   EFERMI =   0.00
   ISMEAR =    -5;   SIGMA  =   0.20  broadening in eV -4-tet -1-fermi 0-gaus

 Electronic relaxation 2 (details)
   IALGO  =     38    algorithm
   LDIAG  =      T    sub-space diagonalisation (order eigenvalues)
   LSUBROT=      F    optimize rotation matrix (better conditioning)
   TURBO    =      0    0=normal 1=particle mesh
   IRESTART =      0    0=no restart 2=restart with 2 vectors
   NREBOOT  =      0    no. of reboots
   NMIN     =      0    reboot dimension
   EREF     =   0.00    reference energy to select bands
   IMIX   =      4    mixing-type and parameters
     AMIX     =   0.40;   BMIX     =  1.00
     AMIX_MAG =   1.60;   BMIX_MAG =  1.00
     AMIN     =   0.10
     WC   =   100.;   INIMIX=   1;  MIXPRE=   1;  MAXMIX= -45

 Intra band minimization:
   WEIMIN = 0.0000     energy-eigenvalue tresh-hold
   EBREAK =  0.12E-08  absolut break condition
   DEPER  =   0.30     relativ break condition  

   TIME   =   0.40     timestep for ELM

  volume/ion in A,a.u.               =      42.87       289.28
  Fermi-wavevector in a.u.,A,eV,Ry     =   0.908795  1.717374 11.237166  0.825908
  Thomas-Fermi vector in A             =   2.032764
 
 Write flags
   LWAVE        =      T    write WAVECAR
   LDOWNSAMPLE  =      F    k-point downsampling of WAVECAR
   LCHARG       =      T    write CHGCAR
   LVTOT        =      F    write LOCPOT, total local potential
   LVHAR        =      F    write LOCPOT, Hartree potential only
   LELF         =      F    write electronic localiz. function (ELF)
   LORBIT       =     10    0 simple, 1 ext, 2 COOP (PROOUT), +10 PAW based schemes


 Dipole corrections
   LMONO  =      F    monopole corrections only (constant potential shift)
   LDIPOL =      F    correct potential (dipole corrections)
   IDIPOL =      0    1-x, 2-y, 3-z, 4-all directions 
   EPSILON=  1.0000000 bulk dielectric constant

 Exchange correlation treatment:
   GGA     =    --    GGA type
   LEXCH   =     8    internal setting for exchange type
   VOSKOWN=      0    Vosko Wilk Nusair interpolation
   LHFCALC =     F    Hartree Fock is set to
   LHFONE  =     F    Hartree Fock one center treatment
   AEXX    =    0.0000 exact exchange contribution

 Linear response parameters
   LEPSILON=     F    determine dielectric tensor
   LRPA    =     F    only Hartree local field effects (RPA)
   LNABLA  =     F    use nabla operator in PAW spheres
   LVEL    =     F    velocity operator in full k-point grid
   LINTERFAST=   F  fast interpolation
   KINTER  =     0    interpolate to denser k-point grid
   CSHIFT  =0.1000    complex shift for real part using Kramers Kronig
   OMEGAMAX=  -1.0    maximum frequency
   DEG_THRESHOLD= 0.2000000E-02 threshold for treating states as degnerate
   RTIME   =   -0.100 relaxation time in fs
  (WPLASMAI=    0.000 imaginary part of plasma frequency in eV, 0.658/RTIME)
   DFIELD  = 0.0000000 0.0000000 0.0000000 field for delta impulse in time
 
 Orbital magnetization related:
   ORBITALMAG=     F  switch on orbital magnetization
   LCHIMAG   =     F  perturbation theory with respect to B field
   DQ        =  0.001000  dq finite difference perturbation B field
   LLRAUG    =     F  two centre corrections for induced B field



--------------------------------------------------------------------------------------------------------


 Static calculation
 charge density and potential will be updated during run
 non-spin polarized calculation
 Variant of blocked Davidson
 Davidson routine will perform the subspace rotation
 perform sub-space diagonalisation
    after iterative eigenvector-optimisation
 modified Broyden-mixing scheme, WC =      100.0
 initial mixing is a Kerker type mixing with AMIX =  0.4000 and BMIX =      1.0000
 Hartree-type preconditioning will be used
 using additional bands           35
 reciprocal scheme for non local part
 use partial core corrections
 calculate Harris-corrections to forces 
   (improved forces if not selfconsistent)
 use gradient corrections 
 use of overlap-Matrix (Vanderbilt PP)
 Fermi weights with tetrahedron method with Bloechl corrections


--------------------------------------------------------------------------------------------------------


  energy-cutoff  :      250.00
  volume of cell :     2057.64
      direct lattice vectors                 reciprocal lattice vectors
    12.718048317  0.000930939  0.000837565     0.078628418 -0.000007675 -0.000007133
     0.001241737 12.719636998  0.000951781    -0.000005754  0.078618597 -0.000005289
     0.001153934  0.000855733 12.719620598    -0.000005177 -0.000005882  0.078618698

  length of vectors
    12.718048379 12.719637095 12.719620679     0.078628418  0.078618597  0.078618698


 
 old parameters found on file WAVECAR:
  energy-cutoff  :      250.00
  volume of cell :     2057.64
      direct lattice vectors                 reciprocal lattice vectors
    12.718048317  0.000930939  0.000837565     0.078628418 -0.000007675 -0.000007133
     0.001241737 12.719636998  0.000951781    -0.000005754  0.078618597 -0.000005289
     0.001153934  0.000855733 12.719620598    -0.000005177 -0.000005882  0.078618698

  length of vectors

 
 k-points in units of 2pi/SCALE and weight: agbii                                   
   0.00000000  0.00000000  0.00000000       0.016
   0.01965710 -0.00000192 -0.00000178       0.031
   0.03931421 -0.00000384 -0.00000357       0.016
  -0.00000144  0.01965465 -0.00000132       0.031
   0.00000129  0.00000147 -0.01965467       0.031
   0.01965567  0.01965273 -0.00000311       0.031
  -0.01965581  0.00000339 -0.01965289       0.031
   0.03931277  0.01965081 -0.00000489       0.031
   0.03931550 -0.00000237 -0.01965824       0.031
  -0.01965854  0.01965657  0.00000046       0.031
   0.01965840 -0.00000045 -0.01965646       0.031
  -0.00000288  0.03930930 -0.00000264       0.016
  -0.00000259 -0.00000294  0.03930935       0.016
   0.01965423  0.03930738 -0.00000443       0.031
  -0.01965969 -0.00000102  0.03931113       0.031
   0.03931133  0.03930546 -0.00000621       0.016
   0.03931162 -0.00000678  0.03930578       0.016
  -0.00000273  0.01965318  0.01965335       0.031
   0.01965437  0.01965126  0.01965157       0.031
   0.03931148  0.01964934  0.01964979       0.031
  -0.01965984  0.01965510  0.01965514       0.031
  -0.00000417  0.03930783  0.01965203       0.031
  -0.00000115 -0.01965759  0.03931067       0.031
   0.01965293  0.03930591  0.01965025       0.031
  -0.01965825 -0.01965567  0.03931245       0.031
   0.03931004  0.03930399  0.01964846       0.031
   0.03931306 -0.01966143  0.03930710       0.031
  -0.01966128  0.03930975  0.01965381       0.031
   0.01965595 -0.01965951  0.03930889       0.031
   0.00000014 -0.01965612  0.01965600       0.031
   0.01965725 -0.01965804  0.01965421       0.031
  -0.01965696 -0.01965420  0.01965778       0.031
   0.03931435 -0.01965996  0.01965243       0.031
  -0.00000547  0.03930636  0.03930670       0.016
   0.01965164  0.03930444  0.03930492       0.031
   0.03930874  0.03930252  0.03930314       0.016
 
 k-points in reciprocal lattice and weights: agbii                                   
   0.00000000  0.00000000  0.00000000       0.016
   0.25000000  0.00000000 -0.00000000       0.031
   0.50000000  0.00000000  0.00000000       0.016
  -0.00000000  0.25000000  0.00000000       0.031
  -0.00000000  0.00000000 -0.25000000       0.031
   0.25000000  0.25000000 -0.00000000       0.031
  -0.25000000  0.00000000 -0.25000000       0.031
   0.50000000  0.25000000  0.00000000       0.031
   0.50000000  0.00000000 -0.25000000       0.031
  -0.25000000  0.25000000 -0.00000000       0.031
   0.25000000  0.00000000 -0.25000000       0.031
  -0.00000000  0.50000000  0.00000000       0.016
   0.00000000 -0.00000000  0.50000000       0.016
   0.25000000  0.50000000 -0.00000000       0.031
  -0.25000000 -0.00000000  0.50000000       0.031
   0.50000000  0.50000000  0.00000000       0.016
   0.50000000  0.00000000  0.50000000       0.016
   0.00000000  0.25000000  0.25000000       0.031
   0.25000000  0.25000000  0.25000000       0.031
   0.50000000  0.25000000  0.25000000       0.031
  -0.25000000  0.25000000  0.25000000       0.031
   0.00000000  0.50000000  0.25000000       0.031
   0.00000000 -0.25000000  0.50000000       0.031
   0.25000000  0.50000000  0.25000000       0.031
  -0.25000000 -0.25000000  0.50000000       0.031
   0.50000000  0.50000000  0.25000000       0.031
   0.50000000 -0.25000000  0.50000000       0.031
  -0.25000000  0.50000000  0.25000000       0.031
   0.25000000 -0.25000000  0.50000000       0.031
   0.00000000 -0.25000000  0.25000000       0.031
   0.25000000 -0.25000000  0.25000000       0.031
  -0.25000000 -0.25000000  0.25000000       0.031
   0.50000000 -0.25000000  0.25000000       0.031
   0.00000000  0.50000000  0.50000000       0.016
   0.25000000  0.50000000  0.50000000       0.031
   0.50000000  0.50000000  0.50000000       0.016
 
 position of ions in fractional coordinates (direct lattice) 
   0.99580854  0.02329125  0.98891246
   0.22476084  0.25020870  0.97561735
   0.99814122  0.49797130  0.50279903
   0.51108281  0.97674410  0.50499364
   0.75271917  0.99535734  0.74715519
   0.75539519  0.52311914  0.26051477
   0.52452745  0.75035900  0.27552287
   0.24088602  0.47673807  0.74481299
   0.49789512  0.50003707  0.00299931
   0.75181205  0.75351694  0.00206959
   0.99877344  0.25337276  0.24918543
   0.00058008  0.74981666  0.75001380
   0.25201912  0.00018282  0.24857420
   0.49915343  0.24652186  0.74910282
   0.75026825  0.25018401  0.50074413
   0.25136169  0.74657953  0.50146738
   0.24065893  0.02016224  0.00807182
   0.26241971  0.99741806  0.49834899
   0.25778582  0.47981811  0.99246412
   0.23940307  0.50838978  0.50529926
   0.75642140  0.99169107  0.98923290
   0.74043948  0.00593004  0.51036704
   0.74826066  0.50269268  0.01346309
   0.76074734  0.49442560  0.48985311
   0.99411347  0.25727038  0.00905508
   0.99505646  0.24273626  0.50079565
   0.99729234  0.74332503  0.99682911
   0.00005900  0.75716769  0.50556041
   0.50995849  0.25372712  0.99576747
   0.50368746  0.25683796  0.50355998
   0.50501451  0.74640444  0.99116480
   0.49165949  0.74271201  0.50630471
   0.00228646  0.00264546  0.23853041
   0.99024468  0.99409614  0.75977639
   0.99483708  0.49157488  0.26114357
   0.01138935  0.50566542  0.74012876
   0.49258246  0.98023211  0.25970737
   0.51142119  0.00835409  0.74443002
   0.50885245  0.52031048  0.24314300
   0.48696939  0.49756255  0.75267461
   0.24564699  0.24628415  0.25992276
   0.25871325  0.24260073  0.74506946
   0.24091949  0.75376061  0.25490233
   0.24696858  0.75688651  0.74700581
   0.75353160  0.24303825  0.25379103
   0.75023673  0.25787105  0.74492929
   0.75559344  0.75749874  0.24200640
   0.75559834  0.74239037  0.75018813
 
 position of ions in cartesian coordinates  (Angst):
  12.66591119  0.29802951 12.57944755
   2.85995569  3.18360790 12.40990888
  12.69560681  6.33537364  6.39672288
   6.50177151 12.42473836  6.42468522
   9.57521691 12.66192411  9.50510839
   9.60810266  6.65481168  3.31477963
   6.67221518  9.54501823  3.50569994
   3.06505153  6.06479686  9.47439417
   6.33287857  6.36075611  0.03904303
   9.56252009  9.58516359  0.02767123
  12.70305098  3.22395261  3.17062182
   0.00917396  9.53803809  9.54060507
   3.20547836  0.00277278  3.16198077
   6.34942798  3.13677424  9.52895634
   9.54283640  3.18337674  6.37014185
   3.19833588  9.49688375  6.37939596
   3.06074629  0.25668733  0.10289125
   3.33928013 12.68746645  6.33997920
   3.28027354  6.10420141 12.62443966
   3.04595420  6.46718869  6.42789930
   9.62257686 12.61550116 12.58424463
   9.41754139  0.07655401  6.49230092
   9.51705498  6.39477653  0.17235057
   9.67640058  6.29004149  6.23185345
  12.64351304  3.27331906  0.11625470
  12.65605545  3.08887194  6.37099513
  12.68568544  9.45660605 12.68083086
   0.00227391  9.63133091  6.43125733
   6.48714087  3.22864375 12.66645306
   6.40682141  3.26778545  6.40575828
   6.42486955  9.49531179 12.60837363
   6.25445570  9.44791808  6.44112252
   0.02935785  0.03385560  3.03402080
  12.59609085 12.64611413  9.66584298
  12.65329784  6.25380366  3.32294819
   0.14633224  6.43252460  9.41464789
   6.26620446 12.46887741  3.30472473
   6.50514879  0.10737416  9.46930378
   6.47253674  6.61884221  3.09360807
   6.19478658  6.32991243  9.57461696
   3.12475603  3.13309615  3.30655905
   3.29148866  3.08667167  9.47744844
   3.06525578  9.58800379  3.24318008
   3.14276015  9.62819076  9.50255777
   9.58404599  3.09227692  3.22898812
   9.54272675  3.28136200  9.47609173
   9.61089379  9.63601945  3.07958346
   9.61152367  9.44428139  9.54344785
 


--------------------------------------------------------------------------------------------------------


 k-point   1 :   0.0000 0.0000 0.0000  plane waves:   18349
 k-point   2 :   0.2500 0.0000-0.0000  plane waves:   18501
 k-point   3 :   0.5000 0.0000 0.0000  plane waves:   18464
 k-point   4 :  -0.0000 0.2500 0.0000  plane waves:   18501
 k-point   5 :  -0.0000 0.0000-0.2500  plane waves:   18501
 k-point   6 :   0.2500 0.2500-0.0000  plane waves:   18473
 k-point   7 :  -0.2500 0.0000-0.2500  plane waves:   18473
 k-point   8 :   0.5000 0.2500 0.0000  plane waves:   18505
 k-point   9 :   0.5000 0.0000-0.2500  plane waves:   18505
 k-point  10 :  -0.2500 0.2500-0.0000  plane waves:   18473
 k-point  11 :   0.2500 0.0000-0.2500  plane waves:   18473
 k-point  12 :  -0.0000 0.5000 0.0000  plane waves:   18464
 k-point  13 :   0.0000-0.0000 0.5000  plane waves:   18464
 k-point  14 :   0.2500 0.5000-0.0000  plane waves:   18504
 k-point  15 :  -0.2500-0.0000 0.5000  plane waves:   18505
 k-point  16 :   0.5000 0.5000 0.0000  plane waves:   18528
 k-point  17 :   0.5000 0.0000 0.5000  plane waves:   18528
 k-point  18 :   0.0000 0.2500 0.2500  plane waves:   18473
 k-point  19 :   0.2500 0.2500 0.2500  plane waves:   18484
 k-point  20 :   0.5000 0.2500 0.2500  plane waves:   18457
 k-point  21 :  -0.2500 0.2500 0.2500  plane waves:   18484
 k-point  22 :   0.0000 0.5000 0.2500  plane waves:   18506
 k-point  23 :   0.0000-0.2500 0.5000  plane waves:   18506
 k-point  24 :   0.2500 0.5000 0.2500  plane waves:   18454
 k-point  25 :  -0.2500-0.2500 0.5000  plane waves:   18453
 k-point  26 :   0.5000 0.5000 0.2500  plane waves:   18468
 k-point  27 :   0.5000-0.2500 0.5000  plane waves:   18468
 k-point  28 :  -0.2500 0.5000 0.2500  plane waves:   18462
 k-point  29 :   0.2500-0.2500 0.5000  plane waves:   18461
 k-point  30 :   0.0000-0.2500 0.2500  plane waves:   18473
 k-point  31 :   0.2500-0.2500 0.2500  plane waves:   18484
 k-point  32 :  -0.2500-0.2500 0.2500  plane waves:   18484
 k-point  33 :   0.5000-0.2500 0.2500  plane waves:   18462
 k-point  34 :   0.0000 0.5000 0.5000  plane waves:   18528
 k-point  35 :   0.2500 0.5000 0.5000  plane waves:   18468
 k-point  36 :   0.5000 0.5000 0.5000  plane waves:   18504

 maximum and minimum number of plane-waves per node :     18528    18349

 maximum number of plane-waves:     18528
 maximum index in each direction: 
   IXMAX=   16   IYMAX=   16   IZMAX=   16
   IXMIN=  -16   IYMIN=  -16   IZMIN=  -16


 serial   3D FFT for wavefunctions
 parallel 3D FFT for charge:
    minimum data exchange during FFTs selected (reduces bandwidth)


 total amount of memory used by VASP MPI-rank0  2770360. kBytes
=======================================================================

   base      :      30000. kBytes
   nonl-proj :     302376. kBytes
   fftplans  :      34720. kBytes
   grid      :      70000. kBytes
   one-center:        746. kBytes
   wavefun   :    2332518. kBytes
 
     INWAV:  cpu time    4.5090: real time    5.0270
 Broyden mixing: mesh for mixing (old mesh)
   NGX = 33   NGY = 33   NGZ = 33
  (NGX  =100   NGY  =100   NGZ  =100)
  gives a total of  35937 points

 initial charge density was supplied:
 number of electron     352.0000408 magnetization 
 keeping initial charge density in first step


--------------------------------------------------------------------------------------------------------


 Maximum index for augmentation-charges         5620 (set IRDMAX)


--------------------------------------------------------------------------------------------------------


 First call to EWALD:  gamma=   0.139
 Maximum number of real-space cells 3x 3x 3
 Maximum number of reciprocal cells 3x 3x 3

    FEWALD:  cpu time    0.0026: real time    0.0026


--------------------------------------- Iteration      1(   1)  ---------------------------------------


    POTLOK:  cpu time    0.5769: real time    0.5929
    SETDIJ:  cpu time    0.0269: real time    0.0269
     EDDAV:  cpu time   54.3935: real time   54.3943
 BZINTS: Fermi energy:    2.071426;  352.000000 electrons
         Band energy:-0.753861E+03;  BLOECHL correction:    0.000000
       DOS:  cpu time    0.0565: real time    0.0565
    CHARGE:  cpu time    1.2207: real time    1.2208
    MIXING:  cpu time    0.0271: real time    0.0271
    --------------------------------------------
      LOOP:  cpu time   56.3016: real time   56.3184

 eigenvalue-minimisations  :  9568
 total energy-change (2. order) :-0.1199659E+03  (-0.2436532E-06)
 number of electron     352.0000408 magnetization 
 augmentation part      -23.1224471 magnetization 

 Broyden mixing:
  rms(total) = 0.65573E-03    rms(broyden)= 0.65570E-03
  rms(prec ) = 0.77034E-03
  weight for this iteration     100.00

 Free energy of the ion-electron system (eV)
  ---------------------------------------------------
  alpha Z        PSCENC =       226.32647421
  Ewald energy   TEWEN  =    -13888.80872950
  -Hartree energ DENC   =     -6065.53693058
  -exchange      EXHF   =         0.00000000
  -V(xc)+E(xc)   XCENC  =     -1392.31850252
  PAW double counting   =     22644.39805102   -20501.88910460
  entropy T*S    EENTRO =         0.00000000
  eigenvalues    EBANDS =      -753.86086627
  atomic energy  EATOM  =     19611.72375700
  Solvation  Ediel_sol  =         0.00000000
  ---------------------------------------------------
  free energy    TOTEN  =      -119.96585124 eV

  energy without entropy =     -119.96585124  energy(sigma->0) =     -119.96585124


--------------------------------------------------------------------------------------------------------




--------------------------------------- Iteration      1(   2)  ---------------------------------------


    POTLOK:  cpu time    0.5671: real time    0.5672
    SETDIJ:  cpu time    0.0495: real time    0.0495
     EDDAV:  cpu time   49.3522: real time   49.3528
 BZINTS: Fermi energy:    2.071357;  352.000000 electrons
         Band energy:-0.753861E+03;  BLOECHL correction:   -0.000000
       DOS:  cpu time    0.0609: real time    0.0609
    --------------------------------------------
      LOOP:  cpu time   50.0297: real time   50.0304

 eigenvalue-minimisations  :  8216
 total energy-change (2. order) :-0.1250010E-07  (-0.1117488E-06)
 number of electron     352.0000408 magnetization 
 augmentation part      -23.1224471 magnetization 

 Free energy of the ion-electron system (eV)
  ---------------------------------------------------
  alpha Z        PSCENC =       226.32647421
  Ewald energy   TEWEN  =    -13888.80872950
  -Hartree energ DENC   =     -6065.53662706
  -exchange      EXHF   =         0.00000000
  -V(xc)+E(xc)   XCENC  =     -1392.31797479
  PAW double counting   =     22643.96405789   -20501.45582771
  entropy T*S    EENTRO =         0.00000000
  eigenvalues    EBANDS =      -753.86098129
  atomic energy  EATOM  =     19611.72375700
  Solvation  Ediel_sol  =         0.00000000
  ---------------------------------------------------
  free energy    TOTEN  =      -119.96585125 eV

  energy without entropy =     -119.96585125  energy(sigma->0) =     -119.96585125


--------------------------------------------------------------------------------------------------------




 average (electrostatic) potential at core
  the test charge radii are     1.1249  1.4024  1.1875
  (the norm of the test charge is              1.0000)
       1 -75.0483       2 -75.1736       3 -74.9883       4 -75.0490       5 -74.9913
       6 -75.0458       7 -75.1735       8 -75.0463       9 -65.4630      10 -65.5193
      11 -65.5148      12 -65.4923      13 -65.4603      14 -65.5168      15 -65.4886
      16 -65.5165      17 -93.0784      18 -93.1716      19 -93.0709      20 -93.0630
      21 -93.0630      22 -92.9952      23 -93.1735      24 -92.9904      25 -93.2173
      26 -93.3073      27 -93.3241      28 -93.2984      29 -93.3110      30 -93.3269
      31 -93.3115      32 -93.2135      33 -93.1679      34 -92.9902      35 -93.0590
      36 -92.9938      37 -93.0763      38 -93.0686      39 -93.0761      40 -93.1770
      41 -93.3115      42 -93.2081      43 -93.3149      44 -93.3313      45 -93.3208
      46 -93.2892      47 -93.2177      48 -93.3150
 
 
 
 E-fermi :   2.0714     XC(G=0):  -7.8086     alpha+bet : -7.7789


 k-point     1 :       0.0000    0.0000    0.0000
  band No.  band energies     occupation 
      1     -10.8345      2.00000
      2     -10.7045      2.00000
      3     -10.6593      2.00000
      4     -10.5233      2.00000
      5     -10.4723      2.00000
      6     -10.2450      2.00000
      7     -10.2122      2.00000
      8     -10.0305      2.00000
      9      -9.8812      2.00000
     10      -9.8704      2.00000
     11      -9.8562      2.00000
     12      -9.8350      2.00000
     13      -9.8275      2.00000
     14      -9.7972      2.00000
     15      -9.7948      2.00000
     16      -9.7268      2.00000
     17      -9.7168      2.00000
     18      -9.6991      2.00000
     19      -9.6970      2.00000
     20      -9.6945      2.00000
     21      -9.6708      2.00000
     22      -9.6457      2.00000
     23      -9.6408      2.00000
     24      -9.6141      2.00000
     25      -9.6013      2.00000
     26      -9.5928      2.00000
     27      -9.5757      2.00000
     28      -9.5483      2.00000
     29      -9.5422      2.00000
     30      -9.5375      2.00000
     31      -9.5307      2.00000
     32      -9.4984      2.00000
     33      -8.2081      2.00000
     34      -8.1093      2.00000
     35      -8.0975      2.00000
     36      -7.8680      2.00000
     37      -7.8424      2.00000
     38      -7.6328      2.00000
     39      -7.6176      2.00000
     40      -7.6163      2.00000
     41      -1.8110      2.00000
     42      -1.7510      2.00000
     43      -1.7057      2.00000
     44      -1.6938      2.00000
     45      -1.6441      2.00000
     46      -1.5771      2.00000
     47      -1.5173      2.00000
     48      -1.4632      2.00000
     49      -1.4592      2.00000
     50      -1.4247      2.00000
     51      -1.4212      2.00000
     52      -1.3804      2.00000
     53      -1.3457      2.00000
     54      -1.3118      2.00000
     55      -1.3031      2.00000
     56      -1.2655      2.00000
     57      -1.2227      2.00000
     58      -1.2149      2.00000
     59      -1.1427      2.00000
     60      -1.0953      2.00000
     61      -1.0901      2.00000
     62      -1.0510      2.00000
     63      -1.0101      2.00000
     64      -1.0072      2.00000
     65      -1.0006      2.00000
     66      -0.9885      2.00000
     67      -0.9719      2.00000
     68      -0.9714      2.00000
     69      -0.9496      2.00000
     70      -0.9121      2.00000
     71      -0.9076      2.00000
     72      -0.9032      2.00000
     73      -0.8695      2.00000
     74      -0.8406      2.00000
     75      -0.8358      2.00000
     76      -0.8051      2.00000
     77      -0.7989      2.00000
     78      -0.7916      2.00000
     79      -0.7707      2.00000
     80      -0.7238      2.00000
     81      -0.6921      2.00000
     82      -0.6834      2.00000
     83      -0.6460      2.00000
     84      -0.6289      2.00000
     85      -0.6181      2.00000
     86      -0.6002      2.00000
     87      -0.5689      2.00000
     88      -0.5404      2.00000
     89      -0.5280      2.00000
     90      -0.4944      2.00000
     91      -0.4689      2.00000
     92      -0.4575      2.00000
     93      -0.4455      2.00000
     94      -0.4021      2.00000
     95      -0.3887      2.00000
     96      -0.3601      2.00000
     97      -0.3438      2.00000
     98      -0.3353      2.00000
     99      -0.3116      2.00000
    100      -0.3061      2.00000
    101      -0.2744      2.00000
    102      -0.2539      2.00000
    103      -0.2479      2.00000
    104      -0.2162      2.00000
    105      -0.1953      2.00000
    106      -0.1888      2.00000
    107      -0.1620      2.00000
    108      -0.1417      2.00000
    109      -0.1148      2.00000
    110      -0.1038      2.00000
    111      -0.0499      2.00000
    112      -0.0319      2.00000
    113       0.0885      2.00000
    114       0.1382      2.00000
    115       0.1800      2.00000
    116       0.1891      2.00000
    117       0.1916      2.00000
    118       0.2223      2.00000
    119       0.2456      2.00000
    120       0.2559      2.00000
    121       0.2645      2.00000
    122       0.3008      2.00000
    123       0.3658      2.00000
    124       0.4058      2.00000
    125       0.4119      2.00000
    126       0.4262      2.00000
    127       0.4920      2.00000
    128       0.5252      2.00000
    129       0.5345      2.00000
    130       0.5358      2.00000
    131       0.5495      2.00000
    132       0.5597      2.00000
    133       0.5987      2.00000
    134       0.6507      2.00000
    135       0.7049      2.00000
    136       0.7169      2.00000
    137       0.7229      2.00000
    138       0.7257      2.00000
    139       0.7379      2.00000
    140       0.7894      2.00000
    141       0.7946      2.00000
    142       0.8062      2.00000
    143       0.8313      2.00000
    144       0.8496      2.00000
    145       0.8571      2.00000
    146       0.8992      2.00000
    147       0.9486      2.00000
    148       0.9765      2.00000
    149       1.0013      2.00000
    150       1.0375      2.00000
    151       1.0750      2.00000
    152       1.1022      2.00000
    153       1.1143      2.00000
    154       1.1608      2.00000
    155       1.1766      2.00000
    156       1.1824      2.00000
    157       1.2065      2.00000
    158       1.2159      2.00000
    159       1.2535      2.00000
    160       1.3203      2.00000
    161       1.3678      2.00000
    162       1.4112      2.00000
    163       1.4746      2.00000
    164       1.5036      2.00000
    165       1.5512      2.00000
    166       1.5653      2.00000
    167       1.5863      2.00000
    168       1.6139      2.00000
    169       1.7702      2.00000
    170       1.7751      2.00000
    171       1.8896      2.00000
    172       1.9054      2.00000
    173       2.0153      2.00000
    174       2.0271      2.00000
    175       2.0429      2.00000
    176       2.0714      2.00000
    177       3.8495      0.00000
    178       4.0125      0.00000
    179       4.0216      0.00000
    180       4.1371      0.00000
    181       4.1726      0.00000
    182       4.3576      0.00000
    183       4.3589      0.00000
    184       4.4042      0.00000
    185       4.4360      0.00000
    186       4.4514      0.00000
    187       4.5283      0.00000
    188       4.5437      0.00000
    189       4.5699      0.00000
    190       4.5767      0.00000
    191       4.6142      0.00000
    192       4.6221      0.00000
    193       4.6534      0.00000
    194       4.7140      0.00000
    195       4.7442      0.00000
    196       4.7486      0.00000
    197       4.8125      0.00000
    198       4.8424      0.00000
    199       4.8479      0.00000
    200       4.9654      0.00000
    201       5.0838      0.00000
    202       5.2811      0.00000
    203       5.5895      0.00000
    204       5.7299      0.00000
    205       5.9279      0.00000
    206       5.9491      0.00000
    207       5.9616      0.00000
    208       5.9985      0.00000
    209       7.1677      0.00000
    210       7.2724      0.00000
    211       7.2844      0.00000

 k-point     2 :       0.2500    0.0000   -0.0000
  band No.  band energies     occupation 
      1     -10.8195      2.00000
      2     -10.7104      2.00000
      3     -10.6798      2.00000
      4     -10.5208      2.00000
      5     -10.4688      2.00000
      6     -10.2437      2.00000
      7     -10.2012      2.00000
      8     -10.0412      2.00000
      9      -9.8847      2.00000
     10      -9.8783      2.00000
     11      -9.8627      2.00000
     12      -9.8365      2.00000
     13      -9.8301      2.00000
     14      -9.7870      2.00000
     15      -9.7758      2.00000
     16      -9.7307      2.00000
     17      -9.7178      2.00000
     18      -9.7039      2.00000
     19      -9.6872      2.00000
     20      -9.6824      2.00000
     21      -9.6770      2.00000
     22      -9.6474      2.00000
     23      -9.6344      2.00000
     24      -9.6209      2.00000
     25      -9.5972      2.00000
     26      -9.5953      2.00000
     27      -9.5708      2.00000
     28      -9.5542      2.00000
     29      -9.5439      2.00000
     30      -9.5388      2.00000
     31      -9.5287      2.00000
     32      -9.5042      2.00000
     33      -8.2133      2.00000
     34      -8.1069      2.00000
     35      -8.0964      2.00000
     36      -7.8673      2.00000
     37      -7.8426      2.00000
     38      -7.6646      2.00000
     39      -7.6155      2.00000
     40      -7.5868      2.00000
     41      -1.7890      2.00000
     42      -1.7353      2.00000
     43      -1.7052      2.00000
     44      -1.6793      2.00000
     45      -1.6381      2.00000
     46      -1.5989      2.00000
     47      -1.5476      2.00000
     48      -1.5331      2.00000
     49      -1.4804      2.00000
     50      -1.4369      2.00000
     51      -1.3837      2.00000
     52      -1.3718      2.00000
     53      -1.3355      2.00000
     54      -1.3056      2.00000
     55      -1.2842      2.00000
     56      -1.2591      2.00000
     57      -1.2128      2.00000
     58      -1.1898      2.00000
     59      -1.1642      2.00000
     60      -1.1176      2.00000
     61      -1.1042      2.00000
     62      -1.0720      2.00000
     63      -1.0365      2.00000
     64      -1.0206      2.00000
     65      -1.0049      2.00000
     66      -0.9874      2.00000
     67      -0.9642      2.00000
     68      -0.9525      2.00000
     69      -0.9342      2.00000
     70      -0.9211      2.00000
     71      -0.9010      2.00000
     72      -0.8914      2.00000
     73      -0.8715      2.00000
     74      -0.8597      2.00000
     75      -0.8230      2.00000
     76      -0.8030      2.00000
     77      -0.8004      2.00000
     78      -0.7954      2.00000
     79      -0.7513      2.00000
     80      -0.7409      2.00000
     81      -0.6936      2.00000
     82      -0.6693      2.00000
     83      -0.6483      2.00000
     84      -0.6336      2.00000
     85      -0.6145      2.00000
     86      -0.5758      2.00000
     87      -0.5684      2.00000
     88      -0.5417      2.00000
     89      -0.4973      2.00000
     90      -0.4818      2.00000
     91      -0.4659      2.00000
     92      -0.4564      2.00000
     93      -0.4280      2.00000
     94      -0.4028      2.00000
     95      -0.3841      2.00000
     96      -0.3740      2.00000
     97      -0.3585      2.00000
     98      -0.3521      2.00000
     99      -0.3305      2.00000
    100      -0.3009      2.00000
    101      -0.2894      2.00000
    102      -0.2712      2.00000
    103      -0.2127      2.00000
    104      -0.2083      2.00000
    105      -0.1960      2.00000
    106      -0.1650      2.00000
    107      -0.1471      2.00000
    108      -0.1450      2.00000
    109      -0.1331      2.00000
    110      -0.1177      2.00000
    111      -0.0864      2.00000
    112      -0.0378      2.00000
    113       0.0935      2.00000
    114       0.1208      2.00000
    115       0.1460      2.00000
    116       0.1600      2.00000
    117       0.1908      2.00000
    118       0.2393      2.00000
    119       0.2571      2.00000
    120       0.2767      2.00000
    121       0.2959      2.00000
    122       0.3477      2.00000
    123       0.3632      2.00000
    124       0.3681      2.00000
    125       0.4282      2.00000
    126       0.4581      2.00000
    127       0.4785      2.00000
    128       0.5177      2.00000
    129       0.5367      2.00000
    130       0.5660      2.00000
    131       0.5770      2.00000
    132       0.6034      2.00000
    133       0.6112      2.00000
    134       0.6373      2.00000
    135       0.6588      2.00000
    136       0.6973      2.00000
    137       0.7106      2.00000
    138       0.7299      2.00000
    139       0.7655      2.00000
    140       0.7741      2.00000
    141       0.7868      2.00000
    142       0.8241      2.00000
    143       0.8315      2.00000
    144       0.8438      2.00000
    145       0.8742      2.00000
    146       0.9070      2.00000
    147       0.9829      2.00000
    148       1.0007      2.00000
    149       1.0050      2.00000
    150       1.0213      2.00000
    151       1.0312      2.00000
    152       1.0896      2.00000
    153       1.1376      2.00000
    154       1.1608      2.00000
    155       1.1637      2.00000
    156       1.1697      2.00000
    157       1.2017      2.00000
    158       1.2224      2.00000
    159       1.2573      2.00000
    160       1.3096      2.00000
    161       1.3648      2.00000
    162       1.4224      2.00000
    163       1.4827      2.00000
    164       1.4975      2.00000
    165       1.5436      2.00000
    166       1.5679      2.00000
    167       1.6132      2.00000
    168       1.6357      2.00000
    169       1.7648      2.00000
    170       1.7783      2.00000
    171       1.8665      2.00000
    172       1.8920      2.00000
    173       1.9834      2.00000
    174       1.9903      2.00000
    175       2.0221      2.00000
    176       2.0322      2.00000
    177       3.9099      0.00000
    178       4.0015      0.00000
    179       4.0437      0.00000
    180       4.1558      0.00000
    181       4.1783      0.00000
    182       4.3155      0.00000
    183       4.3348      0.00000
    184       4.4063      0.00000
    185       4.4399      0.00000
    186       4.4603      0.00000
    187       4.4811      0.00000
    188       4.5187      0.00000
    189       4.5922      0.00000
    190       4.5968      0.00000
    191       4.6100      0.00000
    192       4.6381      0.00000
    193       4.6635      0.00000
    194       4.6686      0.00000
    195       4.7098      0.00000
    196       4.7720      0.00000
    197       4.7979      0.00000
    198       4.8400      0.00000
    199       4.8705      0.00000
    200       4.9445      0.00000
    201       5.2112      0.00000
    202       5.3657      0.00000
    203       5.6002      0.00000
    204       5.7426      0.00000
    205       5.8249      0.00000
    206       5.8448      0.00000
    207       5.9656      0.00000
    208       5.9787      0.00000
    209       7.2796      0.00000
    210       7.3131      0.00000
    211       7.3833      0.00000

 k-point     3 :       0.5000    0.0000    0.0000
  band No.  band energies     occupation 
      1     -10.7953      2.00000
      2     -10.7353      2.00000
      3     -10.6887      2.00000
      4     -10.5193      2.00000
      5     -10.4656      2.00000
      6     -10.2439      2.00000
      7     -10.1884      2.00000
      8     -10.0512      2.00000
      9      -9.8884      2.00000
     10      -9.8859      2.00000
     11      -9.8669      2.00000
     12      -9.8379      2.00000
     13      -9.8327      2.00000
     14      -9.7757      2.00000
     15      -9.7581      2.00000
     16      -9.7332      2.00000
     17      -9.7242      2.00000
     18      -9.6999      2.00000
     19      -9.6875      2.00000
     20      -9.6852      2.00000
     21      -9.6599      2.00000
     22      -9.6558      2.00000
     23      -9.6307      2.00000
     24      -9.6099      2.00000
     25      -9.6043      2.00000
     26      -9.6006      2.00000
     27      -9.5680      2.00000
     28      -9.5636      2.00000
     29      -9.5411      2.00000
     30      -9.5382      2.00000
     31      -9.5212      2.00000
     32      -9.5172      2.00000
     33      -8.2185      2.00000
     34      -8.1060      2.00000
     35      -8.0935      2.00000
     36      -7.8672      2.00000
     37      -7.8425      2.00000
     38      -7.6815      2.00000
     39      -7.6130      2.00000
     40      -7.5726      2.00000
     41      -1.7519      2.00000
     42      -1.7328      2.00000
     43      -1.6840      2.00000
     44      -1.6614      2.00000
     45      -1.6485      2.00000
     46      -1.6304      2.00000
     47      -1.5782      2.00000
     48      -1.5588      2.00000
     49      -1.5077      2.00000
     50      -1.4360      2.00000
     51      -1.4084      2.00000
     52      -1.3702      2.00000
     53      -1.2963      2.00000
     54      -1.2954      2.00000
     55      -1.2750      2.00000
     56      -1.2403      2.00000
     57      -1.2254      2.00000
     58      -1.1779      2.00000
     59      -1.1682      2.00000
     60      -1.1485      2.00000
     61      -1.1379      2.00000
     62      -1.0910      2.00000
     63      -1.0346      2.00000
     64      -1.0050      2.00000
     65      -1.0027      2.00000
     66      -0.9805      2.00000
     67      -0.9534      2.00000
     68      -0.9419      2.00000
     69      -0.9291      2.00000
     70      -0.9248      2.00000
     71      -0.9148      2.00000
     72      -0.8890      2.00000
     73      -0.8573      2.00000
     74      -0.8460      2.00000
     75      -0.8316      2.00000
     76      -0.8193      2.00000
     77      -0.7938      2.00000
     78      -0.7928      2.00000
     79      -0.7671      2.00000
     80      -0.7536      2.00000
     81      -0.6839      2.00000
     82      -0.6587      2.00000
     83      -0.6419      2.00000
     84      -0.6220      2.00000
     85      -0.6183      2.00000
     86      -0.5779      2.00000
     87      -0.5560      2.00000
     88      -0.5064      2.00000
     89      -0.4970      2.00000
     90      -0.4881      2.00000
     91      -0.4752      2.00000
     92      -0.4577      2.00000
     93      -0.4158      2.00000
     94      -0.4069      2.00000
     95      -0.3905      2.00000
     96      -0.3699      2.00000
     97      -0.3445      2.00000
     98      -0.3355      2.00000
     99      -0.3266      2.00000
    100      -0.3200      2.00000
    101      -0.2976      2.00000
    102      -0.2906      2.00000
    103      -0.2174      2.00000
    104      -0.1937      2.00000
    105      -0.1781      2.00000
    106      -0.1648      2.00000
    107      -0.1534      2.00000
    108      -0.1498      2.00000
    109      -0.1316      2.00000
    110      -0.1062      2.00000
    111      -0.1047      2.00000
    112      -0.0456      2.00000
    113       0.0548      2.00000
    114       0.0640      2.00000
    115       0.1113      2.00000
    116       0.1559      2.00000
    117       0.1859      2.00000
    118       0.2238      2.00000
    119       0.2753      2.00000
    120       0.2976      2.00000
    121       0.3262      2.00000
    122       0.3980      2.00000
    123       0.4144      2.00000
    124       0.4304      2.00000
    125       0.4607      2.00000
    126       0.4721      2.00000
    127       0.5004      2.00000
    128       0.5225      2.00000
    129       0.5372      2.00000
    130       0.5518      2.00000
    131       0.5641      2.00000
    132       0.5834      2.00000
    133       0.5881      2.00000
    134       0.6486      2.00000
    135       0.6536      2.00000
    136       0.6611      2.00000
    137       0.7207      2.00000
    138       0.7338      2.00000
    139       0.7582      2.00000
    140       0.7693      2.00000
    141       0.7817      2.00000
    142       0.8079      2.00000
    143       0.8302      2.00000
    144       0.8858      2.00000
    145       0.8886      2.00000
    146       0.9280      2.00000
    147       0.9465      2.00000
    148       0.9832      2.00000
    149       1.0142      2.00000
    150       1.0470      2.00000
    151       1.0755      2.00000
    152       1.0777      2.00000
    153       1.1005      2.00000
    154       1.1039      2.00000
    155       1.1633      2.00000
    156       1.1755      2.00000
    157       1.2006      2.00000
    158       1.2473      2.00000
    159       1.2630      2.00000
    160       1.2887      2.00000
    161       1.3997      2.00000
    162       1.4239      2.00000
    163       1.4641      2.00000
    164       1.4840      2.00000
    165       1.5957      2.00000
    166       1.6015      2.00000
    167       1.6202      2.00000
[...]
    143       0.8633      2.00000
    144       0.8649      2.00000
    145       0.9317      2.00000
    146       0.9331      2.00000
    147       1.0261      2.00000
    148       1.0283      2.00000
    149       1.0511      2.00000
    150       1.0534      2.00000
    151       1.0873      2.00000
    152       1.0889      2.00000
    153       1.1104      2.00000
    154       1.1129      2.00000
    155       1.1770      2.00000
    156       1.1774      2.00000
    157       1.2209      2.00000
    158       1.2230      2.00000
    159       1.2777      2.00000
    160       1.2787      2.00000
    161       1.4605      2.00000
    162       1.4616      2.00000
    163       1.5886      2.00000
    164       1.5932      2.00000
    165       1.6012      2.00000
    166       1.6033      2.00000
    167       1.6919      2.00000
    168       1.6954      2.00000
    169       1.7652      2.00000
    170       1.7669      2.00000
    171       1.8477      2.00000
    172       1.8529      2.00000
    173       1.8800      2.00000
    174       1.8842      2.00000
    175       1.9979      2.00000
    176       2.0010      2.00000
    177       3.8196      0.00000
    178       3.8231      0.00000
    179       4.0040      0.00000
    180       4.0080      0.00000
    181       4.1174      0.00000
    182       4.1182      0.00000
    183       4.2690      0.00000
    184       4.2705      0.00000
    185       4.3375      0.00000
    186       4.3387      0.00000
    187       4.4393      0.00000
    188       4.4415      0.00000
    189       4.6141      0.00000
    190       4.6185      0.00000
    191       4.6926      0.00000
    192       4.6934      0.00000
    193       4.7850      0.00000
    194       4.7857      0.00000
    195       4.8347      0.00000
    196       4.8353      0.00000
    197       4.8984      0.00000
    198       4.9020      0.00000
    199       5.0281      0.00000
    200       5.0307      0.00000
    201       5.5656      0.00000
    202       5.5683      0.00000
    203       5.6070      0.00000
    204       5.6078      0.00000
    205       5.6465      0.00000
    206       5.6496      0.00000
    207       5.7996      0.00000
    208       5.8007      0.00000
    209       7.3333      0.00000
    210       7.3361      0.00000
    211       7.5047      0.00000

 k-point    36 :       0.5000    0.5000    0.5000
  band No.  band energies     occupation 
      1     -10.7601      2.00000
      2     -10.7573      2.00000
      3     -10.6308      2.00000
      4     -10.6299      2.00000
      5     -10.3742      2.00000
      6     -10.3737      2.00000
      7     -10.1058      2.00000
      8     -10.1037      2.00000
      9      -9.8972      2.00000
     10      -9.8935      2.00000
     11      -9.8063      2.00000
     12      -9.8025      2.00000
     13      -9.7794      2.00000
     14      -9.7780      2.00000
     15      -9.7382      2.00000
     16      -9.7367      2.00000
     17      -9.7155      2.00000
     18      -9.7134      2.00000
     19      -9.6908      2.00000
     20      -9.6896      2.00000
     21      -9.6859      2.00000
     22      -9.6848      2.00000
     23      -9.6229      2.00000
     24      -9.6222      2.00000
     25      -9.6014      2.00000
     26      -9.6005      2.00000
     27      -9.5733      2.00000
     28      -9.5719      2.00000
     29      -9.5378      2.00000
     30      -9.5375      2.00000
     31      -9.5285      2.00000
     32      -9.5269      2.00000
     33      -8.1850      2.00000
     34      -8.1839      2.00000
     35      -7.9911      2.00000
     36      -7.9898      2.00000
     37      -7.7509      2.00000
     38      -7.7501      2.00000
     39      -7.5747      2.00000
     40      -7.5716      2.00000
     41      -1.7720      2.00000
     42      -1.7693      2.00000
     43      -1.6663      2.00000
     44      -1.6655      2.00000
     45      -1.6230      2.00000
     46      -1.6199      2.00000
     47      -1.5301      2.00000
     48      -1.5271      2.00000
     49      -1.4771      2.00000
     50      -1.4754      2.00000
     51      -1.4478      2.00000
     52      -1.4446      2.00000
     53      -1.3674      2.00000
     54      -1.3662      2.00000
     55      -1.2746      2.00000
     56      -1.2718      2.00000
     57      -1.2575      2.00000
     58      -1.2530      2.00000
     59      -1.1294      2.00000
     60      -1.1271      2.00000
     61      -1.0333      2.00000
     62      -1.0313      2.00000
     63      -0.9995      2.00000
     64      -0.9935      2.00000
     65      -0.9828      2.00000
     66      -0.9807      2.00000
     67      -0.9542      2.00000
     68      -0.9521      2.00000
     69      -0.9043      2.00000
     70      -0.8983      2.00000
     71      -0.8728      2.00000
     72      -0.8699      2.00000
     73      -0.8559      2.00000
     74      -0.8536      2.00000
     75      -0.8290      2.00000
     76      -0.8280      2.00000
     77      -0.8209      2.00000
     78      -0.8131      2.00000
     79      -0.7308      2.00000
     80      -0.7292      2.00000
     81      -0.6814      2.00000
     82      -0.6789      2.00000
     83      -0.6135      2.00000
     84      -0.6098      2.00000
     85      -0.5797      2.00000
     86      -0.5763      2.00000
     87      -0.5378      2.00000
     88      -0.5367      2.00000
     89      -0.5037      2.00000
     90      -0.5028      2.00000
     91      -0.4647      2.00000
     92      -0.4641      2.00000
     93      -0.3921      2.00000
     94      -0.3883      2.00000
     95      -0.3713      2.00000
     96      -0.3695      2.00000
     97      -0.3454      2.00000
     98      -0.3441      2.00000
     99      -0.2990      2.00000
    100      -0.2967      2.00000
    101      -0.2949      2.00000
    102      -0.2939      2.00000
    103      -0.2432      2.00000
    104      -0.2409      2.00000
    105      -0.1975      2.00000
    106      -0.1967      2.00000
    107      -0.1718      2.00000
    108      -0.1695      2.00000
    109      -0.1312      2.00000
    110      -0.1301      2.00000
    111      -0.0704      2.00000
    112      -0.0674      2.00000
    113       0.0459      2.00000
    114       0.0475      2.00000
    115       0.1561      2.00000
    116       0.1582      2.00000
    117       0.2432      2.00000
    118       0.2449      2.00000
    119       0.2977      2.00000
    120       0.3001      2.00000
    121       0.3775      2.00000
    122       0.3780      2.00000
    123       0.3812      2.00000
    124       0.3848      2.00000
    125       0.4299      2.00000
    126       0.4330      2.00000
    127       0.4645      2.00000
    128       0.4680      2.00000
    129       0.5224      2.00000
    130       0.5265      2.00000
    131       0.5629      2.00000
    132       0.5650      2.00000
    133       0.5857      2.00000
    134       0.5896      2.00000
    135       0.6167      2.00000
    136       0.6178      2.00000
    137       0.6819      2.00000
    138       0.6840      2.00000
    139       0.7119      2.00000
    140       0.7136      2.00000
    141       0.7495      2.00000
    142       0.7511      2.00000
    143       0.8883      2.00000
    144       0.8910      2.00000
    145       0.9202      2.00000
    146       0.9217      2.00000
    147       1.0449      2.00000
    148       1.0481      2.00000
    149       1.0658      2.00000
    150       1.0680      2.00000
    151       1.0860      2.00000
    152       1.0882      2.00000
    153       1.1020      2.00000
    154       1.1050      2.00000
    155       1.1870      2.00000
    156       1.1875      2.00000
    157       1.2161      2.00000
    158       1.2183      2.00000
    159       1.2803      2.00000
    160       1.2812      2.00000
    161       1.4930      2.00000
    162       1.4937      2.00000
    163       1.5915      2.00000
    164       1.5960      2.00000
    165       1.5979      2.00000
    166       1.5984      2.00000
    167       1.7075      2.00000
    168       1.7114      2.00000
    169       1.7847      2.00000
    170       1.7848      2.00000
    171       1.8499      2.00000
    172       1.8561      2.00000
    173       1.8765      2.00000
    174       1.8806      2.00000
    175       2.0350      2.00000
    176       2.0385      2.00000
    177       3.7199      0.00000
    178       3.7236      0.00000
    179       3.9274      0.00000
    180       3.9311      0.00000
    181       4.0579      0.00000
    182       4.0591      0.00000
    183       4.2434      0.00000
    184       4.2447      0.00000
    185       4.3304      0.00000
    186       4.3311      0.00000
    187       4.4373      0.00000
    188       4.4395      0.00000
    189       4.6282      0.00000
    190       4.6332      0.00000
    191       4.7168      0.00000
    192       4.7178      0.00000
    193       4.8323      0.00000
    194       4.8344      0.00000
    195       4.8638      0.00000
    196       4.8652      0.00000
    197       4.9677      0.00000
    198       4.9685      0.00000
    199       5.0416      0.00000
    200       5.0480      0.00000
    201       5.5495      0.00000
    202       5.5527      0.00000
    203       5.5793      0.00000
    204       5.5815      0.00000
    205       5.6154      0.00000
    206       5.6189      0.00000
    207       5.8134      0.00000
    208       5.8143      0.00000
    209       7.2519      0.00000
    210       7.2543      0.00000
    211       7.5198      0.00000


--------------------------------------------------------------------------------------------------------


 soft charge-density along one line, spin component           1
         0         1         2         3         4         5         6         7         8         9
 total charge-density along one line
 
 pseudopotential strength for first ion, spin component:           1
 -6.449  -0.000  -0.001   0.001   0.001  -6.584  -0.000  -0.001
 -0.000  -6.452   0.001   0.000  -0.001  -0.000  -6.587   0.001
 -0.001   0.001  -6.440  -0.000  -0.005  -0.001   0.001  -6.575
  0.001   0.000  -0.000  -6.444   0.000   0.001   0.000  -0.000
  0.001  -0.001  -0.005   0.000  -6.443   0.001  -0.001  -0.005
 -6.584  -0.000  -0.001   0.001   0.001  -6.688  -0.000  -0.001
 -0.000  -6.587   0.001   0.000  -0.001  -0.000  -6.691   0.001
 -0.001   0.001  -6.575  -0.000  -0.005  -0.001   0.001  -6.679
  0.001   0.000  -0.000  -6.579   0.000   0.001   0.000  -0.000
  0.001  -0.001  -0.005   0.000  -6.578   0.001  -0.001  -0.005
  0.000   0.001   0.001   0.000  -0.001   0.000   0.001   0.001
  0.000   0.001   0.002   0.001  -0.001   0.000   0.001   0.002
  0.002   0.006   0.004   0.000   0.007   0.002   0.006   0.004
  0.000  -0.006   0.008   0.001  -0.000   0.000  -0.006   0.007
 -0.006   0.000  -0.001   0.006   0.001  -0.006   0.000  -0.001
  0.002   0.008   0.005   0.000   0.009   0.002   0.008   0.005
  0.000  -0.008   0.009   0.002  -0.000   0.000  -0.007   0.009
 -0.008   0.000  -0.001   0.008   0.002  -0.007   0.000  -0.001
 total augmentation occupancy for first ion, spin component:           1
  2.296  -0.003  -0.067   0.006   0.142  -0.297  -0.001   0.065  -0.012  -0.126  -0.063   0.013   0.010  -0.000   0.042   0.000
 -0.003   2.296   0.073   0.006  -0.115  -0.001  -0.319  -0.074  -0.009   0.114  -0.146   0.024  -0.028   0.066   0.001   0.005
 -0.067   0.073   4.230   0.007  -0.184   0.065  -0.074  -2.070  -0.011   0.167  -0.192   0.032   0.120   0.132  -0.017  -0.005
  0.006   0.006   0.007   2.278   0.058  -0.012  -0.009  -0.011  -0.298  -0.056  -0.066   0.014   0.004   0.001  -0.022  -0.000
  0.142  -0.115  -0.184   0.058   3.900  -0.126   0.114   0.167  -0.056  -1.745  -0.089   0.005   0.184  -0.007   0.009  -0.007
 -0.297  -0.001   0.065  -0.012  -0.126   0.283   0.004  -0.064   0.017   0.112   0.057  -0.014  -0.011   0.000  -0.030   0.001
 -0.001  -0.319  -0.074  -0.009   0.114   0.004   0.324   0.074   0.012  -0.112   0.133  -0.028   0.018  -0.051  -0.001  -0.001
  0.065  -0.074  -2.070  -0.011   0.167  -0.064   0.074   1.911   0.014  -0.151   0.167  -0.032  -0.109  -0.125   0.016   0.007
 -0.012  -0.009  -0.011  -0.298  -0.056   0.017   0.012   0.014   0.300   0.055   0.057  -0.014  -0.003  -0.002   0.013   0.000
 -0.126   0.114   0.167  -0.056  -1.745   0.112  -0.112  -0.151   0.055   1.590   0.081  -0.012  -0.167   0.005  -0.010   0.011
 -0.063  -0.146  -0.192  -0.066  -0.089   0.057   0.133   0.167   0.057   0.081   1.435  -0.306   0.048  -0.045  -0.011  -0.005
  0.013   0.024   0.032   0.014   0.005  -0.014  -0.028  -0.032  -0.014  -0.012  -0.306   0.070  -0.011   0.008   0.002   0.001
  0.010  -0.028   0.120   0.004   0.184  -0.011   0.018  -0.109  -0.003  -0.167   0.048  -0.011   0.078   0.010   0.004  -0.005
 -0.000   0.066   0.132   0.001  -0.007   0.000  -0.051  -0.125  -0.002   0.005  -0.045   0.008   0.010   0.101   0.003  -0.001
  0.042   0.001  -0.017  -0.022   0.009  -0.030  -0.001   0.016   0.013  -0.010  -0.011   0.002   0.004   0.003   0.089  -0.000
  0.000   0.005  -0.005  -0.000  -0.007   0.001  -0.001   0.007   0.000   0.011  -0.005   0.001  -0.005  -0.001  -0.000   0.000
 -0.000  -0.006  -0.004   0.001  -0.000   0.000   0.003   0.008   0.000   0.000   0.004  -0.001  -0.001  -0.007  -0.000   0.000
 -0.005  -0.000   0.000   0.004  -0.000   0.002   0.000  -0.001  -0.001   0.001   0.001  -0.000  -0.000  -0.000  -0.006   0.000


------------------------ aborting loop because EDIFF is reached ----------------------------------------


 


 total charge     
 
# of ion       s       p       d       tot
------------------------------------------
    1        0.241   0.151   9.320   9.712
    2        0.253   0.158   9.312   9.723
    3        0.238   0.147   9.323   9.708
    4        0.241   0.151   9.320   9.712
    5        0.238   0.147   9.323   9.708
    6        0.241   0.151   9.320   9.712
    7        0.252   0.158   9.313   9.723
    8        0.241   0.151   9.320   9.712
    9        1.833   1.401   0.135   3.369
   10        1.834   1.401   0.138   3.373
   11        1.834   1.401   0.139   3.374
   12        1.835   1.398   0.139   3.372
   13        1.833   1.401   0.135   3.370
   14        1.834   1.401   0.138   3.373
   15        1.835   1.398   0.139   3.372
   16        1.834   1.401   0.139   3.374
   17        1.514   2.743   0.015   4.272
   18        1.517   2.746   0.012   4.275
   19        1.514   2.743   0.015   4.272
   20        1.516   2.744   0.015   4.274
   21        1.516   2.743   0.015   4.274
   22        1.513   2.747   0.016   4.276
   23        1.517   2.745   0.013   4.275
   24        1.513   2.748   0.016   4.276
   25        1.514   2.742   0.017   4.274
   26        1.518   2.742   0.013   4.273
   27        1.518   2.742   0.012   4.272
   28        1.518   2.743   0.012   4.273
   29        1.518   2.742   0.011   4.271
   30        1.518   2.742   0.012   4.272
   31        1.518   2.742   0.011   4.271
   32        1.514   2.742   0.017   4.274
   33        1.517   2.746   0.012   4.275
   34        1.513   2.748   0.016   4.276
   35        1.516   2.744   0.015   4.274
   36        1.513   2.747   0.016   4.276
   37        1.514   2.743   0.015   4.272
   38        1.516   2.743   0.015   4.274
   39        1.515   2.743   0.015   4.272
   40        1.517   2.745   0.013   4.275
   41        1.518   2.742   0.011   4.272
   42        1.514   2.743   0.017   4.274
   43        1.518   2.742   0.011   4.272
   44        1.518   2.742   0.012   4.272
   45        1.518   2.743   0.012   4.273
   46        1.518   2.743   0.012   4.273
   47        1.514   2.742   0.017   4.273
   48        1.518   2.742   0.013   4.273
--------------------------------------------------
tot         65.134 100.212  76.093 241.439
 


--------------------------------------------------------------------------------------------------------



  FREE ENERGIE OF THE ION-ELECTRON SYSTEM (eV)
  ---------------------------------------------------
  free  energy   TOTEN  =      -119.96585125 eV

  energy  without entropy=     -119.96585125  energy(sigma->0) =     -119.96585125
 


--------------------------------------------------------------------------------------------------------




--------------------------------------------------------------------------------------------------------


 writing wavefunctions
     LOOP+:  cpu time  111.1359: real time  111.1909
    4ORBIT:  cpu time    0.0000: real time    0.0000
 


 total charge     
 
# of ion       s       p       d       tot
------------------------------------------
    1        0.241   0.151   9.320   9.712
    2        0.253   0.158   9.312   9.723
    3        0.238   0.147   9.323   9.708
    4        0.241   0.151   9.320   9.712
    5        0.238   0.147   9.323   9.708
    6        0.241   0.151   9.320   9.712
    7        0.252   0.158   9.313   9.723
    8        0.241   0.151   9.320   9.712
    9        1.833   1.401   0.135   3.369
   10        1.834   1.401   0.138   3.373
   11        1.834   1.401   0.139   3.374
   12        1.835   1.398   0.139   3.372
   13        1.833   1.401   0.135   3.370
   14        1.834   1.401   0.138   3.373
   15        1.835   1.398   0.139   3.372
   16        1.834   1.401   0.139   3.374
   17        1.514   2.743   0.015   4.272
   18        1.517   2.746   0.012   4.275
   19        1.514   2.743   0.015   4.272
   20        1.516   2.744   0.015   4.274
   21        1.516   2.743   0.015   4.274
   22        1.513   2.747   0.016   4.276
   23        1.517   2.745   0.013   4.275
   24        1.513   2.748   0.016   4.276
   25        1.514   2.742   0.017   4.274
   26        1.518   2.742   0.013   4.273
   27        1.518   2.742   0.012   4.272
   28        1.518   2.743   0.012   4.273
   29        1.518   2.742   0.011   4.271
   30        1.518   2.742   0.012   4.272
   31        1.518   2.742   0.011   4.271
   32        1.514   2.742   0.017   4.274
   33        1.517   2.746   0.012   4.275
   34        1.513   2.748   0.016   4.276
   35        1.516   2.744   0.015   4.274
   36        1.513   2.747   0.016   4.276
   37        1.514   2.743   0.015   4.272
   38        1.516   2.743   0.015   4.274
   39        1.515   2.743   0.015   4.272
   40        1.517   2.745   0.013   4.275
   41        1.518   2.742   0.011   4.272
   42        1.514   2.743   0.017   4.274
   43        1.518   2.742   0.011   4.272
   44        1.518   2.742   0.012   4.272
   45        1.518   2.743   0.012   4.273
   46        1.518   2.743   0.012   4.273
   47        1.514   2.742   0.017   4.273
   48        1.518   2.742   0.013   4.273
--------------------------------------------------
tot         65.134 100.212  76.093 241.439
 
 BZINTS: Fermi energy:    2.071357;  352.000000 electrons
         Band energy:-0.753861E+03;  BLOECHL correction:   -0.000000

 total amount of memory used by VASP MPI-rank0  2770360. kBytes
=======================================================================

   base      :      30000. kBytes
   nonl-proj :     302376. kBytes
   fftplans  :      34720. kBytes
   grid      :      70000. kBytes
   one-center:        746. kBytes
   wavefun   :    2332518. kBytes
 
  
  
 General timing and accounting informations for this job:
 ========================================================
  
                  Total CPU time used (sec):      150.247
                            User time (sec):      145.631
                          System time (sec):        4.616
                         Elapsed time (sec):      152.142
  
                   Maximum memory used (kb):     4322424.
                   Average memory used (kb):           0.
  
                          Minor page faults:       411879
                          Major page faults:           38
                 Voluntary context switches:         2638
