 vasp.6.1.0 28Jan20 (build Jan 13 2021 21:44:47) complex                        
  
 executed on             LinuxIFC date 2021.09.12  19:23:32
 running on    9 total cores
 distrk:  each k-point on    1 cores,    9 groups
 distr:  one band on NCORE=   1 cores,    1 groups


--------------------------------------------------------------------------------------------------------


 INCAR:
 POTCAR:    PAW_PBE Ag 02Apr2005                  
 POTCAR:    PAW_PBE Bi 08Apr2002                  
 POTCAR:    PAW_PBE I 08Apr2002                   
 -----------------------------------------------------------------------------
|                                                                             |
|           W    W    AA    RRRRR   N    N  II  N    N   GGGG   !!!           |
|           W    W   A  A   R    R  NN   N  II  NN   N  G    G  !!!           |
|           W    W  A    A  R    R  N N  N  II  N N  N  G       !!!           |
|           W WW W  AAAAAA  RRRRR   N  N N  II  N  N N  G  GGG   !            |
|           WW  WW  A    A  R   R   N   NN  II  N   NN  G    G                |
|           W    W  A    A  R    R  N    N  II  N    N   GGGG   !!!           |
|                                                                             |
|     For optimal performance we recommend to set                             |
|       NCORE = 4 - approx SQRT(number of cores).                             |
|     NCORE specifies how many cores store one orbital (NPAR=cpu/NCORE).      |
|     This setting can greatly improve the performance of VASP for DFT.       |
|     The default, NCORE=1 might be grossly inefficient on modern             |
|     multi-core architectures or massively parallel machines. Do your        |
|     own testing!!!!                                                         |
|     Unfortunately you need to use the default for GW and RPA                |
|     calculations (for HF NCORE is supported but not extensively tested      |
|     yet).                                                                   |
|                                                                             |
 -----------------------------------------------------------------------------

 POTCAR:    PAW_PBE Ag 02Apr2005                  
   VRHFIN =Ag : s1 d10                                                                              
   LEXCH  = PE                                                                                      
   EATOM  =  1037.2675 eV,   76.2370 Ry                                                             
                                                                                                    
   TITEL  = PAW_PBE Ag 02Apr2005                                                                    
   LULTRA =        F    use ultrasoft PP ?                                                          
   IUNSCR =        1    unscreen: 0-lin 1-nonlin 2-no                                               
   RPACOR =    2.000    partial core radius                                                         
   POMASS =  107.868; ZVAL   =   11.000    mass and valenz                                          
   RCORE  =    2.500    outmost cutoff radius                                                       
   RWIGS  =    2.840; RWIGS  =    1.503    wigner-seitz radius (au A)                               
   ENMAX  =  249.844; ENMIN  =  187.383 eV                                                          
   ICORE  =        3    local potential                                                             
   LCOR   =        T    correct aug charges                                                         
   LPAW   =        T    paw PP                                                                      
   EAUG   =  412.496                                                                                
   DEXC   =    0.000                                                                                
   RMAX   =    2.560    core radius for proj-oper                                                   
   RAUG   =    1.300    factor for augmentation sphere                                              
   RDEP   =    2.576    radius for radial grids                                                     
   RDEPT  =    2.072    core radius for aug-charge                                                  
                                                                                                    
   Atomic configuration                                                                             
   12 entries                                                                                       
     n  l   j            E        occ.                                                              
     1  0  0.50    -25324.9161   2.0000                                                             
     2  0  0.50     -3728.5341   2.0000                                                             
     2  1  1.50     -3344.0404   6.0000                                                             
     3  0  0.50      -683.5581   2.0000                                                             
     3  1  1.50      -557.3225   6.0000                                                             
     3  2  2.50      -358.3853  10.0000                                                             
     4  0  0.50       -95.0341   2.0000                                                             
     4  1  1.50       -58.5511   6.0000                                                             
     4  2  2.50        -7.4440  10.0000                                                             
     5  0  0.50        -4.4045   1.0000                                                             
     5  1  0.50        -1.3606   0.0000                                                             
     4  3  2.50        -1.3606   0.0000                                                             
   Description                                                                                      
     l       E           TYP  RCUT    TYP  RCUT                                                     
     2     -7.4439781     23  2.400                                                                 
     2     -8.8045607     23  2.400                                                                 
     0     -4.4044681     23  2.400                                                                 
     0      1.9520038     23  2.400                                                                 
     1     -1.3605826     23  2.500                                                                 
     1     27.2116520     23  2.500                                                                 
     3     -4.0817478     23  2.400                                                                 
  local pseudopotential read in
  partial core-charges read in
  partial kinetic energy density read in
  atomic valenz-charges read in
  non local Contribution for L=           2  read in
    real space projection operators read in
  non local Contribution for L=           2  read in
    real space projection operators read in
  non local Contribution for L=           0  read in
    real space projection operators read in
  non local Contribution for L=           0  read in
    real space projection operators read in
  non local Contribution for L=           1  read in
    real space projection operators read in
  non local Contribution for L=           1  read in
    real space projection operators read in
    PAW grid and wavefunctions read in
 
   number of l-projection  operators is LMAX  =           6
   number of lm-projection operators is LMMAX =          18
 
 POTCAR:    PAW_PBE Bi 08Apr2002                  
   VRHFIN =Bi:                                                                                      
   LEXCH  = PE                                                                                      
   EATOM  =   150.8133 eV,   11.0845 Ry                                                             
                                                                                                    
   TITEL  = PAW_PBE Bi 08Apr2002                                                                    
   LULTRA =        F    use ultrasoft PP ?                                                          
   IUNSCR =        1    unscreen: 0-lin 1-nonlin 2-no                                               
   RPACOR =    2.200    partial core radius                                                         
   POMASS =  208.980; ZVAL   =    5.000    mass and valenz                                          
   RCORE  =    3.000    outmost cutoff radius                                                       
   RWIGS  =    3.090; RWIGS  =    1.635    wigner-seitz radius (au A)                               
   ENMAX  =  105.037; ENMIN  =   78.777 eV                                                          
   ICORE  =        3    local potential                                                             
   LCOR   =        T    correct aug charges                                                         
   LPAW   =        T    paw PP                                                                      
   EAUG   =  265.427                                                                                
   DEXC   =    0.000                                                                                
   RMAX   =    3.067    core radius for proj-oper                                                   
   RAUG   =    1.300    factor for augmentation sphere                                              
   RDEP   =    3.012    radius for radial grids                                                     
   RDEPT  =    2.604    core radius for aug-charge                                                  
                                                                                                    
   Atomic configuration                                                                             
   17 entries                                                                                       
     n  l   j            E        occ.                                                              
     1  0  0.50    -90639.6582   2.0000                                                             
     2  0  0.50    -16282.4667   2.0000                                                             
     2  1  1.50    -13922.8287   6.0000                                                             
     3  0  0.50     -3930.4763   2.0000                                                             
     3  1  1.50     -3256.7013   6.0000                                                             
     3  2  2.50     -2581.6169  10.0000                                                             
     4  0  0.50      -902.2614   2.0000                                                             
     4  1  1.50      -681.5915   6.0000                                                             
     4  2  2.50      -429.8249  10.0000                                                             
     4  3  3.50      -152.6004  14.0000                                                             
     5  0  0.50      -157.7156   2.0000                                                             
     5  1  1.50       -95.8054   6.0000                                                             
     5  2  2.50       -27.0806  10.0000                                                             
     6  0  0.50       -14.4732   2.0000                                                             
     6  1  1.50        -4.5702   3.0000                                                             
     6  2  2.50        -2.7212   0.0000                                                             
     5  3  2.50        -2.7212   0.0000                                                             
   Description                                                                                      
     l       E           TYP  RCUT    TYP  RCUT                                                     
     0    -14.4732299     23  3.000                                                                 
     0    -12.2452434     23  3.000                                                                 
     1     -4.5701666     23  3.000                                                                 
     1    -13.6058260     23  3.000                                                                 
     2     -2.7211652     23  3.000                                                                 
     3     -1.3605826      7  3.000                                                                 
  local pseudopotential read in
  partial core-charges read in
  partial kinetic energy density read in
  kinetic energy density of atom read in
  atomic valenz-charges read in
  non local Contribution for L=           0  read in
    real space projection operators read in
  non local Contribution for L=           0  read in
    real space projection operators read in
  non local Contribution for L=           1  read in
    real space projection operators read in
  non local Contribution for L=           1  read in
    real space projection operators read in
  non local Contribution for L=           2  read in
    real space projection operators read in
    PAW grid and wavefunctions read in
 
   number of l-projection  operators is LMAX  =           5
   number of lm-projection operators is LMMAX =          13
 
 POTCAR:    PAW_PBE I 08Apr2002                   
   VRHFIN =I : s2p5                                                                                 
   LEXCH  = PE                                                                                      
   EATOM  =   315.8678 eV,   23.2156 Ry                                                             
                                                                                                    
   TITEL  = PAW_PBE I 08Apr2002                                                                     
   LULTRA =        F    use ultrasoft PP ?                                                          
   IUNSCR =        1    unscreen: 0-lin 1-nonlin 2-no                                               
   RPACOR =    2.200    partial core radius                                                         
   POMASS =  126.904; ZVAL   =    7.000    mass and valenz                                          
   RCORE  =    2.300    outmost cutoff radius                                                       
   RWIGS  =    2.810; RWIGS  =    1.487    wigner-seitz radius (au A)                               
   ENMAX  =  175.647; ENMIN  =  131.735 eV                                                          
   ICORE  =        3    local potential                                                             
   LCOR   =        T    correct aug charges                                                         
   LPAW   =        T    paw PP                                                                      
   EAUG   =  370.139                                                                                
   DEXC   =    0.000                                                                                
   RMAX   =    2.359    core radius for proj-oper                                                   
   RAUG   =    1.300    factor for augmentation sphere                                              
   RDEP   =    2.392    radius for radial grids                                                     
   RDEPT  =    2.170    core radius for aug-charge                                                  
                                                                                                    
   Atomic configuration                                                                             
   13 entries                                                                                       
     n  l   j            E        occ.                                                              
     1  0  0.50    -32976.3739   2.0000                                                             
     2  0  0.50     -5094.5933   2.0000                                                             
     2  1  1.50     -4572.0131   6.0000                                                             
     3  0  0.50     -1028.2813   2.0000                                                             
     3  1  1.50      -859.0250   6.0000                                                             
     3  2  2.50      -605.7620  10.0000                                                             
     4  0  0.50      -180.5540   2.0000                                                             
     4  1  1.50      -127.5306   6.0000                                                             
     4  2  2.50       -50.2720  10.0000                                                             
     5  0  0.50       -17.4058   2.0000                                                             
     5  1  0.50        -7.0851   5.0000                                                             
     5  2  1.50        -7.0750   0.0000                                                             
     4  3  2.50        -7.0750   0.0000                                                             
   Description                                                                                      
     l       E           TYP  RCUT    TYP  RCUT                                                     
     0    -17.4058016     23  2.300                                                                 
     0    -18.7663842     23  2.300                                                                 
     1     -7.0850686     23  2.300                                                                 
     1     -4.2150896     23  2.300                                                                 
     2     -7.0750295     23  2.300                                                                 
     3     -1.3605826     23  2.300                                                                 
  local pseudopotential read in
  partial core-charges read in
  partial kinetic energy density read in
  atomic valenz-charges read in
  non local Contribution for L=           0  read in
    real space projection operators read in
  non local Contribution for L=           0  read in
    real space projection operators read in
  non local Contribution for L=           1  read in
    real space projection operators read in
  non local Contribution for L=           1  read in
    real space projection operators read in
  non local Contribution for L=           2  read in
    real space projection operators read in
    PAW grid and wavefunctions read in
 
   number of l-projection  operators is LMAX  =           5
   number of lm-projection operators is LMMAX =          13
 
 -----------------------------------------------------------------------------
|                                                                             |
|               ----> ADVICE to this user running VASP <----                  |
|                                                                             |
|     You have a (more or less) 'large supercell' and for larger cells it     |
|     might be more efficient to use real-space projection operators.         |
|     Therefore, try LREAL= Auto in the INCAR file.                           |
|     Mind: For very accurate calculation, you might also keep the            |
|     reciprocal projection scheme (i.e. LREAL=.FALSE.).                      |
|                                                                             |
 -----------------------------------------------------------------------------

  PAW_PBE Ag 02Apr2005                  :
 energy of atom  1       EATOM=-1037.2675
 kinetic energy error for atom=    0.0686 (will be added to EATOM!!)
  PAW_PBE Bi 08Apr2002                  :
 energy of atom  2       EATOM= -150.8133
 kinetic energy error for atom=    0.0004 (will be added to EATOM!!)
  PAW_PBE I 08Apr2002                   :
 energy of atom  3       EATOM= -315.8678
 kinetic energy error for atom=    0.0044 (will be added to EATOM!!)
 
 
 POSCAR: Generation Seed Number
  positions in direct lattice
  velocities in cartesian coordinates
 exchange correlation table for  LEXCH =        8
   RHO(1)=    0.500       N(1)  =     2000
   RHO(2)=  100.500       N(2)  =     4000
 


--------------------------------------------------------------------------------------------------------


 ion  position               nearest neighbor table
   1  0.004  0.011  0.977-  25 2.94  34 2.99  17 3.07  21 3.12  27 3.17  33 3.55
   2  0.247  0.253  0.002-  25 3.02  19 3.03  29 3.07  17 3.07  41 3.25  42 3.30
   3  0.488  0.496  0.023-  19 2.94  39 2.98  29 3.07  31 3.12  23 3.18  40 3.56
   4  0.002  0.497  0.504-  26 3.02  20 3.03  24 3.07  28 3.08  36 3.22  35 3.32
   5  0.775  0.024  0.751-  21 2.96  22 2.96  46 2.97  34 2.97
   6  0.476  0.725  0.250-  32 2.96  31 2.96  39 2.97  43 2.97
   7  0.759  0.255  0.523-  26 2.94  46 2.99  24 3.07  30 3.14  22 3.15  45 3.56
   8  0.245  0.740  0.477-  20 2.94  43 2.99  28 3.07  32 3.14  18 3.16  44 3.56
   9  0.748  0.752  0.000-  31 3.07  21 3.07  48 3.14  47 3.14  23 3.18  27 3.18
  10  1.000  0.251  0.250-  35 3.11  26 3.11  25 3.11  41 3.11  45 3.14  33 3.15
  11  0.001  0.752  0.747-  28 3.03  34 3.05  44 3.12  48 3.14  27 3.19  36 3.21
  12  0.248  0.998  0.247-  17 3.03  43 3.05  33 3.12  37 3.15  18 3.20  41 3.21
  13  0.502  0.997  0.500-  32 3.07  22 3.07  37 3.14  38 3.14  18 3.19  30 3.19
  14  0.749  0.499  0.253-  24 3.03  39 3.06  45 3.12  47 3.14  23 3.19  35 3.20
  15  0.501  0.252  0.754-  29 3.03  46 3.06  40 3.13  38 3.14  30 3.20  42 3.20
  16  0.250  0.500  0.750-  42 3.11  19 3.11  20 3.11  36 3.12  40 3.14  44 3.14
  17  0.244  0.011  0.008-  12 3.03   1 3.07   2 3.07
  18  0.252  0.987  0.498-   8 3.16  13 3.19  12 3.20
  19  0.259  0.491  0.994-   3 2.94   2 3.03  16 3.11
  20  0.239  0.510  0.505-   8 2.94   4 3.03  16 3.11
  21  0.759  0.993  0.981-   5 2.96   9 3.07   1 3.12
  22  0.743  0.008  0.521-   5 2.96  13 3.07   7 3.15
  23  0.738  0.502  0.002-   3 3.18   9 3.18  14 3.19
  24  0.761  0.495  0.492-  14 3.03   4 3.07   7 3.07
  25  0.010  0.241  0.006-   1 2.94   2 3.02  10 3.11
  26  0.989  0.260  0.495-   7 2.94   4 3.02  10 3.11
  27  0.998  0.762  0.998-   1 3.17   9 3.18  11 3.19
  28  0.005  0.739  0.508-  11 3.03   8 3.07   4 3.08
  29  0.489  0.256  0.992-  15 3.03   3 3.07   2 3.07
  30  0.513  0.248  0.502-   7 3.14  13 3.19  15 3.20
  31  0.507  0.741  0.019-   6 2.96   9 3.07   3 3.12
  32  0.491  0.757  0.480-   6 2.96  13 3.07   8 3.14
  33  0.003  0.003  0.257-  12 3.12  10 3.15   1 3.55
  34  0.006  0.992  0.743-   5 2.97   1 2.99  11 3.05
  35  0.000  0.495  0.243-  10 3.11  14 3.20   4 3.32
  36  0.005  0.499  0.757-  16 3.12  11 3.21   4 3.22
  37  0.495  0.009  0.254-  13 3.14  12 3.15
  38  0.490  0.005  0.747-  13 3.14  15 3.14
  39  0.508  0.494  0.257-   6 2.97   3 2.98  14 3.06
  40  0.497  0.497  0.743-  15 3.13  16 3.14   3 3.56
  41  0.245  0.250  0.258-  10 3.11  12 3.21   2 3.25
  42  0.250  0.255  0.742-  16 3.11  15 3.20   2 3.30
  43  0.245  0.758  0.242-   6 2.97   8 2.99  12 3.05
  44  0.247  0.747  0.757-  11 3.12  16 3.14   8 3.56
  45  0.753  0.253  0.243-  14 3.12  10 3.14   7 3.56
  46  0.742  0.256  0.758-   5 2.97   7 2.99  15 3.06
  47  0.759  0.746  0.247-   9 3.14  14 3.14
  48  0.754  0.741  0.754-   9 3.14  11 3.14
 
 -----------------------------------------------------------------------------
|                                                                             |
|           W    W    AA    RRRRR   N    N  II  N    N   GGGG   !!!           |
|           W    W   A  A   R    R  NN   N  II  NN   N  G    G  !!!           |
|           W    W  A    A  R    R  N N  N  II  N N  N  G       !!!           |
|           W WW W  AAAAAA  RRRRR   N  N N  II  N  N N  G  GGG   !            |
|           WW  WW  A    A  R   R   N   NN  II  N   NN  G    G                |
|           W    W  A    A  R    R  N    N  II  N    N   GGGG   !!!           |
|                                                                             |
|     The determination of the symmetry of your systems shows a strong        |
|     dependence on the tolerance parameter SYMPREC. This is often the        |
|     result of "noise" in the structural parameters (lattice vectors         |
|     and/or ionic positions). Set NWRITE=3 for more details.                 |
|                                                                             |
 -----------------------------------------------------------------------------

  LATTYP: Found a base centered monoclinic cell.
 ALAT       =    17.9758077864
 B/A-ratio  =     0.9998567736
 C/A-ratio  =     2.1214211426
 COS(beta)  =    -0.9428404652
  
  Lattice vectors:
  
 A1 = (   0.0007922309,  12.7098767915,   0.0009760273)
 A2 = (  12.7099337559,   0.0010282021,   0.0011932384)
 A3 = ( -25.4223522861, -25.4228514846, -12.7123684961)


Analysis of symmetry for initial positions (statically):
=====================================================================
 Subroutine PRICEL returns:
 Original cell was already a primitive cell.
 

 Routine SETGRP: Setting up the symmetry group for a 
 base centered monoclinic supercell.


 Subroutine GETGRP returns: Found  1 space group operations
 (whereof  1 operations were pure point group operations)
 out of a pool of  4 trial point group operations.


The static configuration has the point symmetry C_1 .


Analysis of symmetry for dynamics (positions and initial velocities):
=====================================================================
 Subroutine PRICEL returns:
 Original cell was already a primitive cell.
 

 Routine SETGRP: Setting up the symmetry group for a 
 base centered monoclinic supercell.


 Subroutine GETGRP returns: Found  1 space group operations
 (whereof  1 operations were pure point group operations)
 out of a pool of  4 trial point group operations.


The dynamic configuration has the point symmetry C_1 .


 Subroutine INISYM returns: Found  1 space group operations
 (whereof  1 operations are pure point group operations),
 and found     1 'primitive' translations


----------------------------------------------------------------------------------------

                                     Primitive cell                                     

  volume of cell :    2052.8766

  direct lattice vectors                    reciprocal lattice vectors
    12.709933756  0.001028202  0.001193238     0.078678617 -0.000004904 -0.000005574
     0.000792231 12.709876791  0.000976027    -0.000006364  0.078678970 -0.000006448
     0.000900312  0.001041497 12.708029965    -0.000007387 -0.000006042  0.078690404

  length of vectors
    12.709933854 12.709876854 12.708030039     0.078678617  0.078678970  0.078690405

  position of ions in fractional coordinates (direct lattice)
     0.004314208  0.010949550  0.977280337
     0.247281727  0.252841504  0.002245418
     0.488478276  0.495793343  0.023197692
     0.001749389  0.497330133  0.503989076
     0.774963142  0.024417792  0.750754542
     0.475911820  0.725283417  0.249748264
     0.759486610  0.255303913  0.523272585
     0.244755461  0.739707436  0.477091425
     0.747939975  0.752016494  0.000033495
     0.999837869  0.250710679  0.250210261
     0.001269070  0.751695560  0.746674804
     0.248301920  0.998372838  0.246626002
     0.502455856  0.997444003  0.500256569
     0.748749393  0.498821752  0.253486840
     0.501250741  0.251538947  0.753702676
     0.249681452  0.499771504  0.749956426
     0.244079215  0.011094164  0.008304645
     0.252045974  0.987125303  0.497773309
     0.259065972  0.490563637  0.994410001
     0.239466983  0.510265485  0.505415540
     0.759346899  0.992804314  0.980957317
     0.742817725  0.008409302  0.520578697
     0.737710915  0.502001752  0.002355532
     0.760811543  0.494915475  0.491946510
     0.009684192  0.240516615  0.005673458
     0.989113929  0.260014191  0.494703193
     0.998126502  0.762091246  0.997821328
     0.005135311  0.739339674  0.508340220
     0.488748306  0.256399011  0.992030858
     0.513048848  0.247923905  0.502452877
     0.507247187  0.740889841  0.019169119
     0.491129820  0.757098633  0.480175839
     0.002778295  0.003326595  0.256668094
     0.006250148  0.991825219  0.743040441
     0.000274560  0.495208233  0.242875937
     0.004633906  0.499499748  0.757149693
     0.495418258  0.009271300  0.253719525
     0.490388634  0.004640682  0.746831651
     0.508257486  0.494127203  0.257148427
     0.496624210  0.497285580  0.743491637
     0.244715544  0.250483974  0.257785190
     0.249571339  0.255258123  0.742254544
     0.244543767  0.758208842  0.242285558
     0.246776007  0.746979828  0.756781855
     0.752870612  0.253260744  0.243176566
     0.741599347  0.255593258  0.758074464
     0.758804118  0.745838845  0.246563011
     0.754231370  0.741231848  0.753559668

  ion indices of the primitive-cell ions
   primitive index   ion index
                 1           1
                 2           2
                 3           3
                 4           4
                 5           5
                 6           6
                 7           7
                 8           8
                 9           9
                10          10
                11          11
                12          12
                13          13
                14          14
                15          15
                16          16
                17          17
                18          18
                19          19
                20          20
                21          21
                22          22
                23          23
                24          24
                25          25
                26          26
                27          27
                28          28
                29          29
                30          30
                31          31
                32          32
                33          33
                34          34
                35          35
                36          36
                37          37
                38          38
                39          39
                40          40
                41          41
                42          42
                43          43
                44          44
                45          45
                46          46
                47          47
                48          48

----------------------------------------------------------------------------------------

 
 
 KPOINTS: agbii                                   

Automatic generation of k-mesh.
Space group operators:
 irot       det(A)        alpha          n_x          n_y          n_z        tau_x        tau_y        tau_z
    1     1.000000     0.000001     1.000000     0.000000     0.000000     0.000000     0.000000     0.000000
 TETIRR: Found    192 inequivalent tetrahedra from      384
 
 Subroutine IBZKPT returns following result:
 ===========================================
 
 Found     36 irreducible k-points:
 
 Following reciprocal coordinates:
            Coordinates               Weight
  0.000000  0.000000  0.000000      1.000000
  0.250000 -0.000000  0.000000      2.000000
  0.000000 -0.250000 -0.000000      2.000000
  0.500000 -0.000000  0.000000      1.000000
 -0.000000  0.500000  0.000000      1.000000
  0.250000  0.250000  0.000000      2.000000
  0.500000  0.250000  0.000000      2.000000
 -0.250000  0.500000 -0.000000      2.000000
 -0.250000  0.250000 -0.000000      2.000000
  0.500000  0.500000 -0.000000      1.000000
 -0.000000 -0.000000  0.250000      2.000000
  0.250000 -0.000000  0.250000      2.000000
 -0.000000 -0.250000 -0.250000      2.000000
  0.500000 -0.000000  0.250000      2.000000
 -0.000000  0.500000 -0.250000      2.000000
 -0.250000 -0.000000  0.250000      2.000000
 -0.000000  0.250000 -0.250000      2.000000
  0.250000  0.250000  0.250000      2.000000
  0.500000  0.250000  0.250000      2.000000
 -0.250000  0.500000 -0.250000      2.000000
 -0.250000  0.250000  0.250000      2.000000
 -0.250000  0.250000 -0.250000      2.000000
  0.500000  0.500000  0.250000      2.000000
 -0.250000  0.500000  0.250000      2.000000
  0.500000  0.250000 -0.250000      2.000000
 -0.250000 -0.250000  0.250000      2.000000
  0.000000 -0.000000  0.500000      1.000000
  0.250000 -0.000000  0.500000      2.000000
  0.000000 -0.250000  0.500000      2.000000
  0.500000 -0.000000  0.500000      1.000000
  0.000000  0.500000  0.500000      1.000000
  0.250000  0.250000  0.500000      2.000000
  0.500000  0.250000  0.500000      2.000000
 -0.250000  0.500000  0.500000      2.000000
 -0.250000  0.250000  0.500000      2.000000
  0.500000  0.500000  0.500000      1.000000
 
 Following cartesian coordinates:
            Coordinates               Weight
  0.000000  0.000000  0.000000      1.000000
  0.019670 -0.000001 -0.000001      2.000000
  0.000002 -0.019670  0.000002      2.000000
  0.039339 -0.000002 -0.000003      1.000000
 -0.000003  0.039339 -0.000003      1.000000
  0.019668  0.019669 -0.000003      2.000000
  0.039338  0.019667 -0.000004      2.000000
 -0.019673  0.039341 -0.000002      2.000000
 -0.019671  0.019671 -0.000000      2.000000
  0.039336  0.039337 -0.000006      1.000000
 -0.000002 -0.000002  0.019673      2.000000
  0.019668 -0.000003  0.019671      2.000000
  0.000003 -0.019668 -0.019671      2.000000
  0.039337 -0.000004  0.019670      2.000000
 -0.000001  0.039341 -0.019676      2.000000
 -0.019672 -0.000000  0.019674      2.000000
  0.000000  0.019671 -0.019674      2.000000
  0.019666  0.019667  0.019670      2.000000
  0.039336  0.019666  0.019668      2.000000
 -0.019671  0.039342 -0.019674      2.000000
 -0.019673  0.019669  0.019672      2.000000
 -0.019669  0.019672 -0.019673      2.000000
  0.039334  0.039336  0.019667      2.000000
 -0.019675  0.039339  0.019671      2.000000
  0.039340  0.019669 -0.019677      2.000000
 -0.019670 -0.019670  0.019676      2.000000
 -0.000004 -0.000003  0.039345      1.000000
  0.019666 -0.000004  0.039344      2.000000
 -0.000002 -0.019673  0.039347      2.000000
  0.039336 -0.000005  0.039342      1.000000
 -0.000007  0.039336  0.039342      1.000000
  0.019664  0.019665  0.039342      2.000000
  0.039334  0.019664  0.039341      2.000000
 -0.019677  0.039338  0.039343      2.000000
 -0.019675  0.019668  0.039345      2.000000
  0.039332  0.039334  0.039339      1.000000
 


--------------------------------------------------------------------------------------------------------




 Dimension of arrays:
   k-points           NKPTS =     36   k-points in BZ     NKDIM =     36   number of bands    NBANDS=    211
   number of dos      NEDOS =   3000   number of ions     NIONS =     48
   non local maximal  LDIM  =      6   non local SUM 2l+1 LMDIM =     18
   total plane-waves  NPLWV = 125000
   max r-space proj   IRMAX =      1   max aug-charges    IRDMAX=   5999
   dimension x,y,z NGX =    50 NGY =   50 NGZ =   50
   dimension x,y,z NGXF=   100 NGYF=  100 NGZF=  100
   support grid    NGXF=   100 NGYF=  100 NGZF=  100
   ions per type =               8   8  32
   NGX,Y,Z   is equivalent  to a cutoff of   6.54,  6.54,  6.54 a.u.
   NGXF,Y,Z  is equivalent  to a cutoff of  13.08, 13.08, 13.08 a.u.

 SYSTEM =  unknown system                          
 POSCAR =  Generation Seed Number                  

 Startparameter for this run:
   NWRITE =      2    write-flag & timer
   PREC   = normal    normal or accurate (medium, high low for compatibility)
   ISTART =      1    job   : 0-new  1-cont  2-samecut
   ICHARG =      1    charge: 1-file 2-atom 10-const
   ISPIN  =      1    spin polarized calculation?
   LNONCOLLINEAR =      F non collinear calculations
   LSORBIT =      F    spin-orbit coupling
   INIWAV =      1    electr: 0-lowe 1-rand  2-diag
   LASPH  =      F    aspherical Exc in radial PAW
   METAGGA=      F    non-selfconsistent MetaGGA calc.

 Electronic Relaxation 1
   ENCUT  =  250.0 eV  18.37 Ry    4.29 a.u.  16.39 16.39 16.38*2*pi/ulx,y,z
   ENINI  =  250.0     initial cutoff
   ENAUG  =  412.5 eV  augmentation charge cutoff
   NELM   =     60;   NELMIN=  2; NELMDL=  0     # of ELM steps 
   EDIFF  = 0.1E-05   stopping-criterion for ELM
   LREAL  =      F    real-space projection
   NLSPLINE    = F    spline interpolate recip. space projectors
   LCOMPAT=      F    compatible to vasp.4.4
   GGA_COMPAT  = T    GGA compatible to vasp.4.4-vasp.4.6
   LMAXPAW     = -100 max onsite density
   LMAXMIX     =    4 max onsite mixed and CHGCAR
   VOSKOWN=      0    Vosko Wilk Nusair interpolation
   ROPT   =    0.00000   0.00000   0.00000
 Ionic relaxation
   EDIFFG = -.1E-01   stopping-criterion for IOM
   NSW    =      0    number of steps for IOM
   NBLOCK =      1;   KBLOCK =      1    inner block; outer block 
   IBRION =     -1    ionic relax: 0-MD 1-quasi-New 2-CG
   NFREE  =      0    steps in history (QN), initial steepest desc. (CG)
   ISIF   =     -1    stress and relaxation
   IWAVPR =     10    prediction:  0-non 1-charg 2-wave 3-comb
   ISYM   =      2    0-nonsym 1-usesym 2-fastsym
   LCORR  =      T    Harris-Foulkes like correction to forces

   POTIM  = 0.5000    time-step for ionic-motion
   TEIN   =    0.0    initial temperature
   TEBEG  =    0.0;   TEEND  =   0.0 temperature during run
   SMASS  =  -3.00    Nose mass-parameter (am)
   estimated Nose-frequenzy (Omega)   =  0.10E-29 period in steps = 0.13E+47 mass=  -0.369E-26a.u.
   SCALEE = 1.0000    scale energy and forces
   NPACO  =    256;   APACO  = 16.0  distance and # of slots for P.C.
   PSTRESS=    0.0 pullay stress

  Mass of Ions in am
   POMASS = 107.87208.98126.90
  Ionic Valenz
   ZVAL   =  11.00  5.00  7.00
  Atomic Wigner-Seitz radii
   RWIGS  =  -1.00 -1.00 -1.00
  virtual crystal weights 
   VCA    =   1.00  1.00  1.00
   NELECT =     352.0000    total number of electrons
   NUPDOWN=      -1.0000    fix difference up-down

 DOS related values:
   EMIN   =  10.00;   EMAX   =-10.00  energy-range for DOS
   EFERMI =   0.00
   ISMEAR =    -5;   SIGMA  =   0.20  broadening in eV -4-tet -1-fermi 0-gaus

 Electronic relaxation 2 (details)
   IALGO  =     38    algorithm
   LDIAG  =      T    sub-space diagonalisation (order eigenvalues)
   LSUBROT=      F    optimize rotation matrix (better conditioning)
   TURBO    =      0    0=normal 1=particle mesh
   IRESTART =      0    0=no restart 2=restart with 2 vectors
   NREBOOT  =      0    no. of reboots
   NMIN     =      0    reboot dimension
   EREF     =   0.00    reference energy to select bands
   IMIX   =      4    mixing-type and parameters
     AMIX     =   0.40;   BMIX     =  1.00
     AMIX_MAG =   1.60;   BMIX_MAG =  1.00
     AMIN     =   0.10
     WC   =   100.;   INIMIX=   1;  MIXPRE=   1;  MAXMIX= -45

 Intra band minimization:
   WEIMIN = 0.0000     energy-eigenvalue tresh-hold
   EBREAK =  0.12E-08  absolut break condition
   DEPER  =   0.30     relativ break condition  

   TIME   =   0.40     timestep for ELM

  volume/ion in A,a.u.               =      42.77       288.61
  Fermi-wavevector in a.u.,A,eV,Ry     =   0.909497  1.718701 11.254541  0.827185
  Thomas-Fermi vector in A             =   2.033549
 
 Write flags
   LWAVE        =      T    write WAVECAR
   LDOWNSAMPLE  =      F    k-point downsampling of WAVECAR
   LCHARG       =      T    write CHGCAR
   LVTOT        =      F    write LOCPOT, total local potential
   LVHAR        =      F    write LOCPOT, Hartree potential only
   LELF         =      F    write electronic localiz. function (ELF)
   LORBIT       =     10    0 simple, 1 ext, 2 COOP (PROOUT), +10 PAW based schemes


 Dipole corrections
   LMONO  =      F    monopole corrections only (constant potential shift)
   LDIPOL =      F    correct potential (dipole corrections)
   IDIPOL =      0    1-x, 2-y, 3-z, 4-all directions 
   EPSILON=  1.0000000 bulk dielectric constant

 Exchange correlation treatment:
   GGA     =    --    GGA type
   LEXCH   =     8    internal setting for exchange type
   VOSKOWN=      0    Vosko Wilk Nusair interpolation
   LHFCALC =     F    Hartree Fock is set to
   LHFONE  =     F    Hartree Fock one center treatment
   AEXX    =    0.0000 exact exchange contribution

 Linear response parameters
   LEPSILON=     F    determine dielectric tensor
   LRPA    =     F    only Hartree local field effects (RPA)
   LNABLA  =     F    use nabla operator in PAW spheres
   LVEL    =     F    velocity operator in full k-point grid
   LINTERFAST=   F  fast interpolation
   KINTER  =     0    interpolate to denser k-point grid
   CSHIFT  =0.1000    complex shift for real part using Kramers Kronig
   OMEGAMAX=  -1.0    maximum frequency
   DEG_THRESHOLD= 0.2000000E-02 threshold for treating states as degnerate
   RTIME   =   -0.100 relaxation time in fs
  (WPLASMAI=    0.000 imaginary part of plasma frequency in eV, 0.658/RTIME)
   DFIELD  = 0.0000000 0.0000000 0.0000000 field for delta impulse in time
 
 Orbital magnetization related:
   ORBITALMAG=     F  switch on orbital magnetization
   LCHIMAG   =     F  perturbation theory with respect to B field
   DQ        =  0.001000  dq finite difference perturbation B field
   LLRAUG    =     F  two centre corrections for induced B field



--------------------------------------------------------------------------------------------------------


 Static calculation
 charge density and potential will be updated during run
 non-spin polarized calculation
 Variant of blocked Davidson
 Davidson routine will perform the subspace rotation
 perform sub-space diagonalisation
    after iterative eigenvector-optimisation
 modified Broyden-mixing scheme, WC =      100.0
 initial mixing is a Kerker type mixing with AMIX =  0.4000 and BMIX =      1.0000
 Hartree-type preconditioning will be used
 using additional bands           35
 reciprocal scheme for non local part
 use partial core corrections
 calculate Harris-corrections to forces 
   (improved forces if not selfconsistent)
 use gradient corrections 
 use of overlap-Matrix (Vanderbilt PP)
 Fermi weights with tetrahedron method with Bloechl corrections


--------------------------------------------------------------------------------------------------------


  energy-cutoff  :      250.00
  volume of cell :     2052.88
      direct lattice vectors                 reciprocal lattice vectors
    12.709933756  0.001028202  0.001193238     0.078678617 -0.000004904 -0.000005574
     0.000792231 12.709876791  0.000976027    -0.000006364  0.078678970 -0.000006448
     0.000900312  0.001041497 12.708029965    -0.000007387 -0.000006042  0.078690404

  length of vectors
    12.709933854 12.709876854 12.708030039     0.078678617  0.078678970  0.078690405


 
 old parameters found on file WAVECAR:
  energy-cutoff  :      250.00
  volume of cell :     2052.88
      direct lattice vectors                 reciprocal lattice vectors
    12.709933756  0.001028202  0.001193238     0.078678617 -0.000004904 -0.000005574
     0.000792231 12.709876791  0.000976027    -0.000006364  0.078678970 -0.000006448
     0.000900312  0.001041497 12.708029965    -0.000007387 -0.000006042  0.078690404

  length of vectors

 
 k-points in units of 2pi/SCALE and weight: agbii                                   
   0.00000000  0.00000000  0.00000000       0.016
   0.01966965 -0.00000123 -0.00000139       0.031
   0.00000159 -0.01966974  0.00000161       0.031
   0.03933931 -0.00000245 -0.00000279       0.016
  -0.00000318  0.03933948 -0.00000322       0.016
   0.01966806  0.01966852 -0.00000301       0.031
   0.03933772  0.01966729 -0.00000440       0.031
  -0.01967284  0.03934071 -0.00000183       0.031
  -0.01967125  0.01967097 -0.00000022       0.031
   0.03933613  0.03933703 -0.00000601       0.016
  -0.00000185 -0.00000151  0.01967260       0.031
   0.01966781 -0.00000274  0.01967121       0.031
   0.00000344 -0.01966823 -0.01967099       0.031
   0.03933746 -0.00000396  0.01966981       0.031
  -0.00000134  0.03934100 -0.01967582       0.031
  -0.01967150 -0.00000028  0.01967399       0.031
   0.00000026  0.01967125 -0.01967421       0.031
   0.01966622  0.01966701  0.01966960       0.031
   0.03933587  0.01966578  0.01966820       0.031
  -0.01967099  0.03934222 -0.01967443       0.031
  -0.01967309  0.01966946  0.01967238       0.031
  -0.01966940  0.01967248 -0.01967282       0.031
   0.03933428  0.03933552  0.01966659       0.031
  -0.01967468  0.03933920  0.01967077       0.031
   0.03933956  0.01966880 -0.01967700       0.031
  -0.01966991 -0.01967003  0.01967561       0.031
  -0.00000369 -0.00000302  0.03934520       0.016
   0.01966596 -0.00000425  0.03934381       0.031
  -0.00000210 -0.01967276  0.03934681       0.031
   0.03933561 -0.00000547  0.03934242       0.016
  -0.00000688  0.03933646  0.03934198       0.016
   0.01966437  0.01966550  0.03934220       0.031
   0.03933402  0.01966427  0.03934080       0.031
  -0.01967653  0.03933769  0.03934337       0.031
  -0.01967494  0.01966795  0.03934498       0.031
   0.03933243  0.03933401  0.03933919       0.016
 
 k-points in reciprocal lattice and weights: agbii                                   
   0.00000000  0.00000000  0.00000000       0.016
   0.25000000 -0.00000000  0.00000000       0.031
   0.00000000 -0.25000000 -0.00000000       0.031
   0.50000000 -0.00000000  0.00000000       0.016
  -0.00000000  0.50000000  0.00000000       0.016
   0.25000000  0.25000000  0.00000000       0.031
   0.50000000  0.25000000  0.00000000       0.031
  -0.25000000  0.50000000 -0.00000000       0.031
  -0.25000000  0.25000000 -0.00000000       0.031
   0.50000000  0.50000000 -0.00000000       0.016
  -0.00000000 -0.00000000  0.25000000       0.031
   0.25000000 -0.00000000  0.25000000       0.031
  -0.00000000 -0.25000000 -0.25000000       0.031
   0.50000000 -0.00000000  0.25000000       0.031
  -0.00000000  0.50000000 -0.25000000       0.031
  -0.25000000 -0.00000000  0.25000000       0.031
  -0.00000000  0.25000000 -0.25000000       0.031
   0.25000000  0.25000000  0.25000000       0.031
   0.50000000  0.25000000  0.25000000       0.031
  -0.25000000  0.50000000 -0.25000000       0.031
  -0.25000000  0.25000000  0.25000000       0.031
  -0.25000000  0.25000000 -0.25000000       0.031
   0.50000000  0.50000000  0.25000000       0.031
  -0.25000000  0.50000000  0.25000000       0.031
   0.50000000  0.25000000 -0.25000000       0.031
  -0.25000000 -0.25000000  0.25000000       0.031
   0.00000000 -0.00000000  0.50000000       0.016
   0.25000000 -0.00000000  0.50000000       0.031
   0.00000000 -0.25000000  0.50000000       0.031
   0.50000000 -0.00000000  0.50000000       0.016
   0.00000000  0.50000000  0.50000000       0.016
   0.25000000  0.25000000  0.50000000       0.031
   0.50000000  0.25000000  0.50000000       0.031
  -0.25000000  0.50000000  0.50000000       0.031
  -0.25000000  0.25000000  0.50000000       0.031
   0.50000000  0.50000000  0.50000000       0.016
 
 position of ions in fractional coordinates (direct lattice) 
   0.00431421  0.01094955  0.97728034
   0.24728173  0.25284150  0.00224542
   0.48847828  0.49579334  0.02319769
   0.00174939  0.49733013  0.50398908
   0.77496314  0.02441779  0.75075454
   0.47591182  0.72528342  0.24974826
   0.75948661  0.25530391  0.52327258
   0.24475546  0.73970744  0.47709143
   0.74793998  0.75201649  0.00003349
   0.99983787  0.25071068  0.25021026
   0.00126907  0.75169556  0.74667480
   0.24830192  0.99837284  0.24662600
   0.50245586  0.99744400  0.50025657
   0.74874939  0.49882175  0.25348684
   0.50125074  0.25153895  0.75370268
   0.24968145  0.49977150  0.74995643
   0.24407922  0.01109416  0.00830464
   0.25204597  0.98712530  0.49777331
   0.25906597  0.49056364  0.99441000
   0.23946698  0.51026548  0.50541554
   0.75934690  0.99280431  0.98095732
   0.74281772  0.00840930  0.52057870
   0.73771092  0.50200175  0.00235553
   0.76081154  0.49491547  0.49194651
   0.00968419  0.24051661  0.00567346
   0.98911393  0.26001419  0.49470319
   0.99812650  0.76209125  0.99782133
   0.00513531  0.73933967  0.50834022
   0.48874831  0.25639901  0.99203086
   0.51304885  0.24792390  0.50245288
   0.50724719  0.74088984  0.01916912
   0.49112982  0.75709863  0.48017584
   0.00277830  0.00332659  0.25666809
   0.00625015  0.99182522  0.74304044
   0.00027456  0.49520823  0.24287594
   0.00463391  0.49949975  0.75714969
   0.49541826  0.00927130  0.25371953
   0.49038863  0.00464068  0.74683165
   0.50825749  0.49412720  0.25714843
   0.49662421  0.49728558  0.74349164
   0.24471554  0.25048397  0.25778519
   0.24957134  0.25525812  0.74225454
   0.24454377  0.75820884  0.24228556
   0.24677601  0.74697983  0.75678186
   0.75287061  0.25326074  0.24317657
   0.74159935  0.25559326  0.75807446
   0.75880412  0.74583885  0.24656301
   0.75423137  0.74123185  0.75355967
 
 position of ions in cartesian coordinates  (Angst):
   0.05572184  0.14018971 12.41932364
   3.14313670  3.21384096  0.02907668
   6.20894020  6.30199872  0.29586375
   0.02308236  6.32153142  6.40519577
   9.85042545  0.31192586  9.54155976
   6.04960715  9.21901231  3.17508419
   9.65369787  3.24620717  6.65091912
   3.11184125  9.40233893  6.06390616
   9.50686334  9.55880605  0.00205211
  12.70829697  3.18779047  3.18111724
   0.01739755  9.55473692  9.48950097
   3.15691394 12.68970792  3.13540134
   6.38742124 12.67842803  6.35884855
   9.51717859  6.34099688  3.22269866
   6.37174155  3.19832939  9.57891981
   3.17450585  6.35307203  9.53125446
   3.10224692  0.14126506  0.10583775
   3.20471782 12.54701857  6.32698234
   3.29399526  6.23630543 12.63778002
   3.04446877  6.48618405  6.42361961
   9.65291848 12.62022293 12.46791007
   9.44163942  0.10818714  6.61642424
   9.37665669  6.38114139  0.03130441
   9.67069931  6.29160934  6.25306187
   0.12328109  3.05695240  0.07234478
  12.57222390  3.30628057  6.28813703
  12.68762382  9.68815135 12.68227816
   0.06631285  9.39745088  6.46073049
   6.21305486  3.26033557 12.60759131
   6.52146565  3.15213310  6.38604039
   6.44768236  9.41716011  0.24493013
   6.24325958  9.62363543  6.10341393
   0.03554567  0.04255079  3.26175239
   0.08089369 12.60675664  9.44355570
   0.00410062  6.29428886  3.08695834
   0.05997403  6.34937359  9.62237404
   6.29696901  0.11861072  3.22487553
   6.23348312  0.06026454  9.49134868
   6.46054195  6.28108628  3.26893866
   6.31312415  6.32172342  9.44939196
   3.11074889  3.18414055  3.27647841
   3.17290567  3.24532896  9.43313993
   3.10895388  9.63724475  3.08000396
   3.13777983  9.49506350  9.61823003
   9.56935518  3.21994022  3.09144064
   9.42656356  3.25011086  9.63476737
   9.64516293  9.48055683  3.13496353
   9.58749642  9.42252580  9.57788229
 


--------------------------------------------------------------------------------------------------------


 k-point   1 :   0.0000 0.0000 0.0000  plane waves:   18349
 k-point   2 :   0.2500-0.0000 0.0000  plane waves:   18465
 k-point   3 :   0.0000-0.2500-0.0000  plane waves:   18465
 k-point   4 :   0.5000-0.0000 0.0000  plane waves:   18464
 k-point   5 :  -0.0000 0.5000 0.0000  plane waves:   18464
 k-point   6 :   0.2500 0.2500 0.0000  plane waves:   18429
 k-point   7 :   0.5000 0.2500 0.0000  plane waves:   18418
 k-point   8 :  -0.2500 0.5000-0.0000  plane waves:   18418
 k-point   9 :  -0.2500 0.2500-0.0000  plane waves:   18429
 k-point  10 :   0.5000 0.5000-0.0000  plane waves:   18424
 k-point  11 :  -0.0000-0.0000 0.2500  plane waves:   18465
 k-point  12 :   0.2500-0.0000 0.2500  plane waves:   18429
 k-point  13 :  -0.0000-0.2500-0.2500  plane waves:   18429
 k-point  14 :   0.5000-0.0000 0.2500  plane waves:   18418
 k-point  15 :  -0.0000 0.5000-0.2500  plane waves:   18418
 k-point  16 :  -0.2500-0.0000 0.2500  plane waves:   18429
 k-point  17 :  -0.0000 0.2500-0.2500  plane waves:   18429
 k-point  18 :   0.2500 0.2500 0.2500  plane waves:   18430
 k-point  19 :   0.5000 0.2500 0.2500  plane waves:   18438
 k-point  20 :  -0.2500 0.5000-0.2500  plane waves:   18438
 k-point  21 :  -0.2500 0.2500 0.2500  plane waves:   18430
 k-point  22 :  -0.2500 0.2500-0.2500  plane waves:   18430
 k-point  23 :   0.5000 0.5000 0.2500  plane waves:   18432
 k-point  24 :  -0.2500 0.5000 0.2500  plane waves:   18438
 k-point  25 :   0.5000 0.2500-0.2500  plane waves:   18438
 k-point  26 :  -0.2500-0.2500 0.2500  plane waves:   18430
 k-point  27 :   0.0000-0.0000 0.5000  plane waves:   18464
 k-point  28 :   0.2500-0.0000 0.5000  plane waves:   18418
 k-point  29 :   0.0000-0.2500 0.5000  plane waves:   18418
 k-point  30 :   0.5000-0.0000 0.5000  plane waves:   18438
 k-point  31 :   0.0000 0.5000 0.5000  plane waves:   18438
 k-point  32 :   0.2500 0.2500 0.5000  plane waves:   18438
 k-point  33 :   0.5000 0.2500 0.5000  plane waves:   18432
 k-point  34 :  -0.2500 0.5000 0.5000  plane waves:   18432
 k-point  35 :  -0.2500 0.2500 0.5000  plane waves:   18438
 k-point  36 :   0.5000 0.5000 0.5000  plane waves:   18336

 maximum and minimum number of plane-waves per node :     18465    18336

 maximum number of plane-waves:     18465
 maximum index in each direction: 
   IXMAX=   16   IYMAX=   16   IZMAX=   16
   IXMIN=  -16   IYMIN=  -16   IZMIN=  -16


 serial   3D FFT for wavefunctions
 parallel 3D FFT for charge:
    minimum data exchange during FFTs selected (reduces bandwidth)


 total amount of memory used by VASP MPI-rank0  2761676. kBytes
=======================================================================

   base      :      30000. kBytes
   nonl-proj :     301348. kBytes
   fftplans  :      34720. kBytes
   grid      :      70000. kBytes
   one-center:        746. kBytes
   wavefun   :    2324862. kBytes
 
     INWAV:  cpu time    4.5077: real time    5.3032
 Broyden mixing: mesh for mixing (old mesh)
   NGX = 33   NGY = 33   NGZ = 33
  (NGX  =100   NGY  =100   NGZ  =100)
  gives a total of  35937 points

 initial charge density was supplied:
 number of electron     352.0000353 magnetization 
 keeping initial charge density in first step


--------------------------------------------------------------------------------------------------------


 Maximum index for augmentation-charges         5628 (set IRDMAX)


--------------------------------------------------------------------------------------------------------


 First call to EWALD:  gamma=   0.139
 Maximum number of real-space cells 3x 3x 3
 Maximum number of reciprocal cells 3x 3x 3

    FEWALD:  cpu time    0.0028: real time    0.0028


--------------------------------------- Iteration      1(   1)  ---------------------------------------


    POTLOK:  cpu time    0.5799: real time    0.5937
    SETDIJ:  cpu time    0.0275: real time    0.0278
     EDDAV:  cpu time   60.9407: real time   60.9399
 BZINTS: Fermi energy:    2.093505;  352.000000 electrons
         Band energy:-0.747414E+03;  BLOECHL correction:    0.000000
       DOS:  cpu time    0.0558: real time    0.0558
    CHARGE:  cpu time    1.2375: real time    1.2375
    MIXING:  cpu time    0.0267: real time    0.0267
    --------------------------------------------
      LOOP:  cpu time   62.8682: real time   62.8814

 eigenvalue-minimisations  : 10744
 total energy-change (2. order) :-0.1199660E+03  (-0.3284179E-06)
 number of electron     352.0000353 magnetization 
 augmentation part      -23.1228498 magnetization 

 Broyden mixing:
  rms(total) = 0.66234E-03    rms(broyden)= 0.66230E-03
  rms(prec ) = 0.79202E-03
  weight for this iteration     100.00

 Free energy of the ion-electron system (eV)
  ---------------------------------------------------
  alpha Z        PSCENC =       226.85159923
  Ewald energy   TEWEN  =    -13911.34885607
  -Hartree energ DENC   =     -6049.99658330
  -exchange      EXHF   =         0.00000000
  -V(xc)+E(xc)   XCENC  =     -1392.28563496
  PAW double counting   =     22647.73263419   -20505.22882501
  entropy T*S    EENTRO =         0.00000000
  eigenvalues    EBANDS =      -747.41407179
  atomic energy  EATOM  =     19611.72375700
  Solvation  Ediel_sol  =         0.00000000
  ---------------------------------------------------
  free energy    TOTEN  =      -119.96598071 eV

  energy without entropy =     -119.96598071  energy(sigma->0) =     -119.96598071


--------------------------------------------------------------------------------------------------------




--------------------------------------- Iteration      1(   2)  ---------------------------------------


    POTLOK:  cpu time    0.5621: real time    0.5625
    SETDIJ:  cpu time    0.0535: real time    0.0535
     EDDAV:  cpu time   51.1576: real time   51.1565
 BZINTS: Fermi energy:    2.093669;  352.000000 electrons
         Band energy:-0.747410E+03;  BLOECHL correction:    0.000000
       DOS:  cpu time    0.0547: real time    0.0547
    --------------------------------------------
      LOOP:  cpu time   51.8279: real time   51.8271

 eigenvalue-minimisations  :  8213
 total energy-change (2. order) : 0.1503831E-06  (-0.1297739E-06)
 number of electron     352.0000353 magnetization 
 augmentation part      -23.1228498 magnetization 

 Free energy of the ion-electron system (eV)
  ---------------------------------------------------
  alpha Z        PSCENC =       226.85159923
  Ewald energy   TEWEN  =    -13911.34885607
  -Hartree energ DENC   =     -6050.00044346
  -exchange      EXHF   =         0.00000000
  -V(xc)+E(xc)   XCENC  =     -1392.28511862
  PAW double counting   =     22647.29646141   -20504.79349230
  entropy T*S    EENTRO =         0.00000000
  eigenvalues    EBANDS =      -747.40988775
  atomic energy  EATOM  =     19611.72375700
  Solvation  Ediel_sol  =         0.00000000
  ---------------------------------------------------
  free energy    TOTEN  =      -119.96598056 eV

  energy without entropy =     -119.96598056  energy(sigma->0) =     -119.96598056


--------------------------------------------------------------------------------------------------------




 average (electrostatic) potential at core
  the test charge radii are     1.1249  1.4024  1.1875
  (the norm of the test charge is              1.0000)
       1 -75.0281       2 -74.9709       3 -75.0306       4 -74.9700       5 -75.1539
       6 -75.1518       7 -75.0263       8 -75.0259       9 -65.4432      10 -65.4724
      11 -65.5001      12 -65.4984      13 -65.4441      14 -65.4973      15 -65.4998
      16 -65.4747      17 -93.0461      18 -93.1536      19 -92.9753      20 -92.9703
      21 -93.0626      22 -93.0546      23 -93.1496      24 -93.0465      25 -92.9701
      26 -92.9729      27 -93.1506      28 -93.0423      29 -93.0526      30 -93.1585
      31 -93.0614      32 -93.0580      33 -93.3029      34 -93.2029      35 -93.2751
      36 -93.2984      37 -93.2919      38 -93.2946      39 -93.1936      40 -93.3111
      41 -93.2878      42 -93.2787      43 -93.1951      44 -93.3056      45 -93.3091
      46 -93.1909      47 -93.2982      48 -93.2982
 
 
 
 E-fermi :   2.0937     XC(G=0):  -7.8207     alpha+bet : -7.7970


 k-point     1 :       0.0000    0.0000    0.0000
  band No.  band energies     occupation 
      1     -10.8157      2.00000
      2     -10.6839      2.00000
      3     -10.6401      2.00000
      4     -10.5046      2.00000
      5     -10.4531      2.00000
      6     -10.2274      2.00000
      7     -10.1934      2.00000
      8     -10.0136      2.00000
      9      -9.8633      2.00000
     10      -9.8526      2.00000
     11      -9.8377      2.00000
     12      -9.8163      2.00000
     13      -9.8101      2.00000
     14      -9.7796      2.00000
     15      -9.7780      2.00000
     16      -9.7086      2.00000
     17      -9.6991      2.00000
     18      -9.6807      2.00000
     19      -9.6781      2.00000
     20      -9.6767      2.00000
     21      -9.6521      2.00000
     22      -9.6286      2.00000
     23      -9.6234      2.00000
     24      -9.5951      2.00000
     25      -9.5832      2.00000
     26      -9.5759      2.00000
     27      -9.5585      2.00000
     28      -9.5305      2.00000
     29      -9.5243      2.00000
     30      -9.5180      2.00000
     31      -9.5122      2.00000
     32      -9.4798      2.00000
     33      -8.1884      2.00000
     34      -8.0901      2.00000
     35      -8.0788      2.00000
     36      -7.8499      2.00000
     37      -7.8249      2.00000
     38      -7.6173      2.00000
     39      -7.6010      2.00000
     40      -7.5990      2.00000
     41      -1.7925      2.00000
     42      -1.7346      2.00000
     43      -1.6852      2.00000
     44      -1.6777      2.00000
     45      -1.6259      2.00000
     46      -1.5595      2.00000
     47      -1.4977      2.00000
     48      -1.4442      2.00000
     49      -1.4403      2.00000
     50      -1.4048      2.00000
     51      -1.4017      2.00000
     52      -1.3628      2.00000
     53      -1.3262      2.00000
     54      -1.2915      2.00000
     55      -1.2842      2.00000
     56      -1.2492      2.00000
     57      -1.2026      2.00000
     58      -1.1976      2.00000
     59      -1.1251      2.00000
     60      -1.0774      2.00000
     61      -1.0736      2.00000
     62      -1.0335      2.00000
     63      -0.9975      2.00000
     64      -0.9884      2.00000
     65      -0.9818      2.00000
     66      -0.9696      2.00000
     67      -0.9537      2.00000
     68      -0.9519      2.00000
     69      -0.9293      2.00000
     70      -0.8931      2.00000
     71      -0.8891      2.00000
     72      -0.8835      2.00000
     73      -0.8493      2.00000
     74      -0.8223      2.00000
     75      -0.8185      2.00000
     76      -0.7881      2.00000
     77      -0.7820      2.00000
     78      -0.7729      2.00000
     79      -0.7565      2.00000
     80      -0.7080      2.00000
     81      -0.6754      2.00000
     82      -0.6646      2.00000
     83      -0.6266      2.00000
     84      -0.6148      2.00000
     85      -0.6033      2.00000
     86      -0.5830      2.00000
     87      -0.5517      2.00000
     88      -0.5235      2.00000
     89      -0.5115      2.00000
     90      -0.4771      2.00000
     91      -0.4474      2.00000
     92      -0.4391      2.00000
     93      -0.4249      2.00000
     94      -0.3814      2.00000
     95      -0.3700      2.00000
     96      -0.3413      2.00000
     97      -0.3244      2.00000
     98      -0.3162      2.00000
     99      -0.2931      2.00000
    100      -0.2875      2.00000
    101      -0.2564      2.00000
    102      -0.2369      2.00000
    103      -0.2321      2.00000
    104      -0.1991      2.00000
    105      -0.1762      2.00000
    106      -0.1707      2.00000
    107      -0.1446      2.00000
    108      -0.1227      2.00000
    109      -0.0945      2.00000
    110      -0.0827      2.00000
    111      -0.0301      2.00000
    112      -0.0101      2.00000
    113       0.1064      2.00000
    114       0.1545      2.00000
    115       0.1968      2.00000
    116       0.2052      2.00000
    117       0.2089      2.00000
    118       0.2369      2.00000
    119       0.2616      2.00000
    120       0.2731      2.00000
    121       0.2785      2.00000
    122       0.3190      2.00000
    123       0.3846      2.00000
    124       0.4226      2.00000
    125       0.4289      2.00000
    126       0.4416      2.00000
    127       0.5109      2.00000
    128       0.5442      2.00000
    129       0.5490      2.00000
    130       0.5525      2.00000
    131       0.5651      2.00000
    132       0.5759      2.00000
    133       0.6153      2.00000
    134       0.6690      2.00000
    135       0.7211      2.00000
    136       0.7365      2.00000
    137       0.7425      2.00000
    138       0.7439      2.00000
    139       0.7553      2.00000
    140       0.8074      2.00000
    141       0.8087      2.00000
    142       0.8248      2.00000
    143       0.8487      2.00000
    144       0.8670      2.00000
    145       0.8747      2.00000
    146       0.9155      2.00000
    147       0.9666      2.00000
    148       0.9944      2.00000
    149       1.0199      2.00000
    150       1.0553      2.00000
    151       1.0918      2.00000
    152       1.1187      2.00000
    153       1.1317      2.00000
    154       1.1802      2.00000
    155       1.1954      2.00000
    156       1.2012      2.00000
    157       1.2248      2.00000
    158       1.2354      2.00000
    159       1.2730      2.00000
    160       1.3402      2.00000
    161       1.3870      2.00000
    162       1.4317      2.00000
    163       1.4973      2.00000
    164       1.5262      2.00000
    165       1.5725      2.00000
    166       1.5873      2.00000
    167       1.6095      2.00000
    168       1.6361      2.00000
    169       1.7914      2.00000
    170       1.7954      2.00000
    171       1.9127      2.00000
    172       1.9281      2.00000
    173       2.0365      2.00000
    174       2.0493      2.00000
    175       2.0642      2.00000
    176       2.0935      2.00000
    177       3.8711      0.00000
    178       4.0331      0.00000
    179       4.0421      0.00000
    180       4.1550      0.00000
    181       4.1918      0.00000
    182       4.3740      0.00000
    183       4.3757      0.00000
    184       4.4211      0.00000
    185       4.4497      0.00000
    186       4.4676      0.00000
    187       4.5425      0.00000
    188       4.5614      0.00000
    189       4.5857      0.00000
    190       4.5887      0.00000
    191       4.6314      0.00000
    192       4.6388      0.00000
    193       4.6665      0.00000
    194       4.7295      0.00000
    195       4.7583      0.00000
    196       4.7642      0.00000
    197       4.8304      0.00000
    198       4.8603      0.00000
    199       4.8654      0.00000
    200       4.9803      0.00000
    201       5.1076      0.00000
    202       5.3022      0.00000
    203       5.6056      0.00000
    204       5.7443      0.00000
    205       5.9556      0.00000
    206       5.9759      0.00000
    207       5.9877      0.00000
    208       6.0226      0.00000
    209       7.1842      0.00000
    210       7.2880      0.00000
    211       7.3002      0.00000

 k-point     2 :       0.2500   -0.0000    0.0000
  band No.  band energies     occupation 
      1     -10.8005      2.00000
      2     -10.6901      2.00000
      3     -10.6606      2.00000
      4     -10.5019      2.00000
      5     -10.4495      2.00000
      6     -10.2261      2.00000
      7     -10.1823      2.00000
      8     -10.0244      2.00000
      9      -9.8669      2.00000
     10      -9.8604      2.00000
     11      -9.8445      2.00000
     12      -9.8180      2.00000
     13      -9.8123      2.00000
     14      -9.7693      2.00000
     15      -9.7582      2.00000
     16      -9.7128      2.00000
     17      -9.6996      2.00000
     18      -9.6863      2.00000
     19      -9.6682      2.00000
     20      -9.6638      2.00000
     21      -9.6590      2.00000
     22      -9.6299      2.00000
     23      -9.6169      2.00000
     24      -9.6023      2.00000
     25      -9.5802      2.00000
     26      -9.5775      2.00000
     27      -9.5535      2.00000
     28      -9.5364      2.00000
     29      -9.5254      2.00000
     30      -9.5195      2.00000
     31      -9.5106      2.00000
     32      -9.4857      2.00000
     33      -8.1937      2.00000
     34      -8.0878      2.00000
     35      -8.0775      2.00000
     36      -7.8492      2.00000
     37      -7.8252      2.00000
     38      -7.6483      2.00000
     39      -7.5986      2.00000
     40      -7.5705      2.00000
     41      -1.7702      2.00000
     42      -1.7179      2.00000
     43      -1.6859      2.00000
     44      -1.6627      2.00000
     45      -1.6201      2.00000
     46      -1.5817      2.00000
     47      -1.5285      2.00000
     48      -1.5139      2.00000
     49      -1.4616      2.00000
     50      -1.4173      2.00000
     51      -1.3652      2.00000
     52      -1.3525      2.00000
     53      -1.3175      2.00000
     54      -1.2859      2.00000
     55      -1.2657      2.00000
     56      -1.2415      2.00000
     57      -1.1951      2.00000
     58      -1.1711      2.00000
     59      -1.1464      2.00000
     60      -1.0991      2.00000
     61      -1.0874      2.00000
     62      -1.0534      2.00000
     63      -1.0183      2.00000
     64      -1.0034      2.00000
     65      -0.9850      2.00000
     66      -0.9680      2.00000
     67      -0.9489      2.00000
     68      -0.9344      2.00000
     69      -0.9149      2.00000
     70      -0.9027      2.00000
     71      -0.8827      2.00000
     72      -0.8734      2.00000
     73      -0.8520      2.00000
     74      -0.8418      2.00000
     75      -0.8054      2.00000
     76      -0.7850      2.00000
     77      -0.7823      2.00000
     78      -0.7775      2.00000
     79      -0.7347      2.00000
     80      -0.7235      2.00000
     81      -0.6762      2.00000
     82      -0.6533      2.00000
     83      -0.6313      2.00000
     84      -0.6173      2.00000
     85      -0.5985      2.00000
     86      -0.5581      2.00000
     87      -0.5516      2.00000
     88      -0.5259      2.00000
     89      -0.4787      2.00000
     90      -0.4623      2.00000
     91      -0.4472      2.00000
     92      -0.4369      2.00000
     93      -0.4091      2.00000
     94      -0.3826      2.00000
     95      -0.3658      2.00000
     96      -0.3555      2.00000
     97      -0.3406      2.00000
     98      -0.3317      2.00000
     99      -0.3120      2.00000
    100      -0.2839      2.00000
    101      -0.2716      2.00000
    102      -0.2536      2.00000
    103      -0.1930      2.00000
    104      -0.1890      2.00000
    105      -0.1789      2.00000
    106      -0.1470      2.00000
    107      -0.1278      2.00000
    108      -0.1256      2.00000
    109      -0.1150      2.00000
    110      -0.0971      2.00000
    111      -0.0663      2.00000
    112      -0.0166      2.00000
    113       0.1099      2.00000
    114       0.1373      2.00000
    115       0.1637      2.00000
    116       0.1763      2.00000
    117       0.2084      2.00000
    118       0.2561      2.00000
    119       0.2735      2.00000
    120       0.2929      2.00000
    121       0.3111      2.00000
    122       0.3648      2.00000
    123       0.3800      2.00000
    124       0.3837      2.00000
    125       0.4446      2.00000
    126       0.4759      2.00000
    127       0.4972      2.00000
    128       0.5339      2.00000
    129       0.5532      2.00000
    130       0.5841      2.00000
    131       0.5940      2.00000
    132       0.6202      2.00000
    133       0.6275      2.00000
    134       0.6554      2.00000
    135       0.6773      2.00000
    136       0.7157      2.00000
    137       0.7286      2.00000
    138       0.7468      2.00000
    139       0.7830      2.00000
    140       0.7913      2.00000
    141       0.8031      2.00000
    142       0.8425      2.00000
    143       0.8483      2.00000
    144       0.8622      2.00000
    145       0.8915      2.00000
    146       0.9235      2.00000
    147       1.0005      2.00000
    148       1.0179      2.00000
    149       1.0225      2.00000
    150       1.0381      2.00000
    151       1.0493      2.00000
    152       1.1080      2.00000
    153       1.1561      2.00000
    154       1.1791      2.00000
    155       1.1819      2.00000
    156       1.1879      2.00000
    157       1.2200      2.00000
    158       1.2421      2.00000
    159       1.2774      2.00000
    160       1.3298      2.00000
    161       1.3845      2.00000
    162       1.4433      2.00000
    163       1.5053      2.00000
    164       1.5202      2.00000
    165       1.5647      2.00000
    166       1.5892      2.00000
    167       1.6358      2.00000
    168       1.6587      2.00000
    169       1.7848      2.00000
    170       1.7991      2.00000
    171       1.8891      2.00000
    172       1.9143      2.00000
    173       2.0062      2.00000
    174       2.0116      2.00000
    175       2.0429      2.00000
    176       2.0537      2.00000
    177       3.9316      0.00000
    178       4.0226      0.00000
    179       4.0648      0.00000
    180       4.1740      0.00000
    181       4.1966      0.00000
    182       4.3317      0.00000
    183       4.3515      0.00000
    184       4.4229      0.00000
    185       4.4555      0.00000
    186       4.4778      0.00000
    187       4.4966      0.00000
    188       4.5346      0.00000
    189       4.6074      0.00000
    190       4.6127      0.00000
    191       4.6270      0.00000
    192       4.6520      0.00000
    193       4.6774      0.00000
    194       4.6840      0.00000
    195       4.7249      0.00000
    196       4.7904      0.00000
    197       4.8118      0.00000
    198       4.8573      0.00000
    199       4.8875      0.00000
    200       4.9595      0.00000
    201       5.2352      0.00000
    202       5.3870      0.00000
    203       5.6163      0.00000
    204       5.7575      0.00000
    205       5.8512      0.00000
    206       5.8700      0.00000
    207       5.9906      0.00000
    208       6.0049      0.00000
    209       7.2970      0.00000
    210       7.3297      0.00000
    211       7.3995      0.00000

 k-point     3 :       0.0000   -0.2500   -0.0000
  band No.  band energies     occupation 
      1     -10.8006      2.00000
      2     -10.6899      2.00000
      3     -10.6609      2.00000
      4     -10.5018      2.00000
      5     -10.4496      2.00000
      6     -10.2268      2.00000
      7     -10.1815      2.00000
      8     -10.0244      2.00000
      9      -9.8681      2.00000
     10      -9.8627      2.00000
     11      -9.8407      2.00000
     12      -9.8181      2.00000
     13      -9.8129      2.00000
     14      -9.7690      2.00000
     15      -9.7579      2.00000
     16      -9.7134      2.00000
     17      -9.6989      2.00000
     18      -9.6864      2.00000
     19      -9.6672      2.00000
     20      -9.6640      2.00000
     21      -9.6600      2.00000
     22      -9.6310      2.00000
     23      -9.6163      2.00000
     24      -9.6015      2.00000
     25      -9.5795      2.00000
     26      -9.5782      2.00000
     27      -9.5533      2.00000
     28      -9.5362      2.00000
     29      -9.5264      2.00000
     30      -9.5192      2.00000
     31      -9.5106      2.00000
     32      -9.4858      2.00000
     33      -8.1937      2.00000
     34      -8.0864      2.00000
     35      -8.0790      2.00000
     36      -7.8485      2.00000
     37      -7.8257      2.00000
     38      -7.6493      2.00000
     39      -7.5974      2.00000
     40      -7.5707      2.00000
     41      -1.7701      2.00000
     42      -1.7179      2.00000
     43      -1.6861      2.00000
     44      -1.6630      2.00000
     45      -1.6200      2.00000
     46      -1.5810      2.00000
     47      -1.5295      2.00000
     48      -1.5135      2.00000
     49      -1.4617      2.00000
     50      -1.4175      2.00000
     51      -1.3648      2.00000
     52      -1.3495      2.00000
     53      -1.3188      2.00000
     54      -1.2869      2.00000
     55      -1.2682      2.00000
     56      -1.2412      2.00000
     57      -1.1957      2.00000
     58      -1.1699      2.00000
     59      -1.1464      2.00000
     60      -1.0973      2.00000
     61      -1.0863      2.00000
     62      -1.0523      2.00000
     63      -1.0164      2.00000
     64      -1.0043      2.00000
     65      -0.9861      2.00000
     66      -0.9697      2.00000
     67      -0.9498      2.00000
     68      -0.9339      2.00000
     69      -0.9129      2.00000
     70      -0.9040      2.00000
     71      -0.8820      2.00000
     72      -0.8733      2.00000
     73      -0.8517      2.00000
     74      -0.8417      2.00000
     75      -0.8066      2.00000
     76      -0.7856      2.00000
     77      -0.7825      2.00000
     78      -0.7777      2.00000
     79      -0.7346      2.00000
     80      -0.7243      2.00000
     81      -0.6781      2.00000
     82      -0.6495      2.00000
     83      -0.6261      2.00000
     84      -0.6187      2.00000
     85      -0.6034      2.00000
     86      -0.5602      2.00000
     87      -0.5513      2.00000
     88      -0.5257      2.00000
     89      -0.4771      2.00000
     90      -0.4654      2.00000
     91      -0.4467      2.00000
     92      -0.4361      2.00000
     93      -0.4093      2.00000
     94      -0.3818      2.00000
     95      -0.3699      2.00000
     96      -0.3548      2.00000
     97      -0.3440      2.00000
     98      -0.3308      2.00000
     99      -0.3074      2.00000
    100      -0.2838      2.00000
    101      -0.2711      2.00000
    102      -0.2530      2.00000
    103      -0.1931      2.00000
    104      -0.1898      2.00000
    105      -0.1799      2.00000
    106      -0.1463      2.00000
    107      -0.1283      2.00000
    108      -0.1235      2.00000
    109      -0.1150      2.00000
    110      -0.0999      2.00000
    111      -0.0658      2.00000
    112      -0.0135      2.00000
    113       0.1117      2.00000
    114       0.1380      2.00000
    115       0.1603      2.00000
    116       0.1766      2.00000
    117       0.2077      2.00000
    118       0.2562      2.00000
    119       0.2743      2.00000
    120       0.2921      2.00000
    121       0.3112      2.00000
    122       0.3656      2.00000
    123       0.3782      2.00000
    124       0.3831      2.00000
    125       0.4427      2.00000
    126       0.4786      2.00000
    127       0.5003      2.00000
    128       0.5355      2.00000
    129       0.5536      2.00000
    130       0.5827      2.00000
    131       0.5954      2.00000
    132       0.6172      2.00000
    133       0.6285      2.00000
    134       0.6554      2.00000
    135       0.6812      2.00000
    136       0.7148      2.00000
    137       0.7275      2.00000
    138       0.7467      2.00000
    139       0.7847      2.00000
    140       0.7899      2.00000
    141       0.8027      2.00000
    142       0.8411      2.00000
    143       0.8458      2.00000
    144       0.8626      2.00000
    145       0.8919      2.00000
    146       0.9267      2.00000
    147       1.0002      2.00000
    148       1.0153      2.00000
    149       1.0190      2.00000
    150       1.0384      2.00000
    151       1.0492      2.00000
    152       1.1120      2.00000
    153       1.1559      2.00000
    154       1.1769      2.00000
    155       1.1845      2.00000
    156       1.1875      2.00000
    157       1.2160      2.00000
    158       1.2431      2.00000
    159       1.2755      2.00000
    160       1.3304      2.00000
    161       1.3866      2.00000
    162       1.4461      2.00000
    163       1.5067      2.00000
    164       1.5184      2.00000
    165       1.5628      2.00000
    166       1.5893      2.00000
    167       1.6358      2.00000
[...]
    143       0.8874      2.00000
    144       0.8890      2.00000
    145       0.9287      2.00000
    146       0.9307      2.00000
    147       1.0344      2.00000
    148       1.0358      2.00000
    149       1.0525      2.00000
    150       1.0541      2.00000
    151       1.1097      2.00000
    152       1.1111      2.00000
    153       1.1446      2.00000
    154       1.1462      2.00000
    155       1.1944      2.00000
    156       1.1953      2.00000
    157       1.2409      2.00000
    158       1.2428      2.00000
    159       1.2893      2.00000
    160       1.2898      2.00000
    161       1.4737      2.00000
    162       1.4770      2.00000
    163       1.5933      2.00000
    164       1.5962      2.00000
    165       1.6235      2.00000
    166       1.6305      2.00000
    167       1.7125      2.00000
    168       1.7148      2.00000
    169       1.7668      2.00000
    170       1.7710      2.00000
    171       1.7905      2.00000
    172       1.7937      2.00000
    173       1.9592      2.00000
    174       1.9628      2.00000
    175       2.0367      2.00000
    176       2.0415      2.00000
    177       3.9658      0.00000
    178       3.9713      0.00000
    179       4.0683      0.00000
    180       4.0716      0.00000
    181       4.1706      0.00000
    182       4.1721      0.00000
    183       4.2875      0.00000
    184       4.2891      0.00000
    185       4.3382      0.00000
    186       4.3402      0.00000
    187       4.4557      0.00000
    188       4.4561      0.00000
    189       4.6196      0.00000
    190       4.6203      0.00000
    191       4.6797      0.00000
    192       4.6809      0.00000
    193       4.7800      0.00000
    194       4.7833      0.00000
    195       4.8221      0.00000
    196       4.8234      0.00000
    197       4.8990      0.00000
    198       4.8998      0.00000
    199       4.9961      0.00000
    200       4.9995      0.00000
    201       5.5122      0.00000
    202       5.5126      0.00000
    203       5.6681      0.00000
    204       5.6723      0.00000
    205       5.6885      0.00000
    206       5.6939      0.00000
    207       5.8898      0.00000
    208       5.8913      0.00000
    209       7.4254      0.00000
    210       7.4324      0.00000
    211       7.5411      0.00000

 k-point    36 :       0.5000    0.5000    0.5000
  band No.  band energies     occupation 
      1     -10.7402      2.00000
      2     -10.7373      2.00000
      3     -10.6120      2.00000
      4     -10.6110      2.00000
      5     -10.3559      2.00000
      6     -10.3552      2.00000
      7     -10.0888      2.00000
      8     -10.0866      2.00000
      9      -9.8791      2.00000
     10      -9.8758      2.00000
     11      -9.7869      2.00000
     12      -9.7838      2.00000
     13      -9.7609      2.00000
     14      -9.7594      2.00000
     15      -9.7205      2.00000
     16      -9.7188      2.00000
     17      -9.6972      2.00000
     18      -9.6956      2.00000
     19      -9.6733      2.00000
     20      -9.6705      2.00000
     21      -9.6678      2.00000
     22      -9.6670      2.00000
     23      -9.6056      2.00000
     24      -9.6039      2.00000
     25      -9.5840      2.00000
     26      -9.5834      2.00000
     27      -9.5556      2.00000
     28      -9.5540      2.00000
     29      -9.5196      2.00000
     30      -9.5193      2.00000
     31      -9.5102      2.00000
     32      -9.5085      2.00000
     33      -8.1657      2.00000
     34      -8.1644      2.00000
     35      -7.9724      2.00000
     36      -7.9717      2.00000
     37      -7.7336      2.00000
     38      -7.7333      2.00000
     39      -7.5576      2.00000
     40      -7.5557      2.00000
     41      -1.7533      2.00000
     42      -1.7498      2.00000
     43      -1.6498      2.00000
     44      -1.6478      2.00000
     45      -1.6052      2.00000
     46      -1.6022      2.00000
     47      -1.5130      2.00000
     48      -1.5093      2.00000
     49      -1.4573      2.00000
     50      -1.4560      2.00000
     51      -1.4298      2.00000
     52      -1.4277      2.00000
     53      -1.3493      2.00000
     54      -1.3483      2.00000
     55      -1.2568      2.00000
     56      -1.2534      2.00000
     57      -1.2384      2.00000
     58      -1.2340      2.00000
     59      -1.1122      2.00000
     60      -1.1093      2.00000
     61      -1.0139      2.00000
     62      -1.0128      2.00000
     63      -0.9812      2.00000
     64      -0.9740      2.00000
     65      -0.9650      2.00000
     66      -0.9627      2.00000
     67      -0.9373      2.00000
     68      -0.9320      2.00000
     69      -0.8853      2.00000
     70      -0.8805      2.00000
     71      -0.8518      2.00000
     72      -0.8497      2.00000
     73      -0.8365      2.00000
     74      -0.8350      2.00000
     75      -0.8118      2.00000
     76      -0.8087      2.00000
     77      -0.8022      2.00000
     78      -0.7962      2.00000
     79      -0.7139      2.00000
     80      -0.7113      2.00000
     81      -0.6641      2.00000
     82      -0.6627      2.00000
     83      -0.5973      2.00000
     84      -0.5929      2.00000
     85      -0.5627      2.00000
     86      -0.5589      2.00000
     87      -0.5212      2.00000
     88      -0.5178      2.00000
     89      -0.4850      2.00000
     90      -0.4834      2.00000
     91      -0.4464      2.00000
     92      -0.4457      2.00000
     93      -0.3697      2.00000
     94      -0.3685      2.00000
     95      -0.3522      2.00000
     96      -0.3503      2.00000
     97      -0.3255      2.00000
     98      -0.3248      2.00000
     99      -0.2815      2.00000
    100      -0.2795      2.00000
    101      -0.2771      2.00000
    102      -0.2751      2.00000
    103      -0.2248      2.00000
    104      -0.2229      2.00000
    105      -0.1800      2.00000
    106      -0.1791      2.00000
    107      -0.1524      2.00000
    108      -0.1496      2.00000
    109      -0.1107      2.00000
    110      -0.1105      2.00000
    111      -0.0494      2.00000
    112      -0.0470      2.00000
    113       0.0641      2.00000
    114       0.0654      2.00000
    115       0.1728      2.00000
    116       0.1746      2.00000
    117       0.2598      2.00000
    118       0.2606      2.00000
    119       0.3138      2.00000
    120       0.3175      2.00000
    121       0.3935      2.00000
    122       0.3943      2.00000
    123       0.3962      2.00000
    124       0.3976      2.00000
    125       0.4453      2.00000
    126       0.4481      2.00000
    127       0.4804      2.00000
    128       0.4829      2.00000
    129       0.5408      2.00000
    130       0.5444      2.00000
    131       0.5800      2.00000
    132       0.5805      2.00000
    133       0.6022      2.00000
    134       0.6051      2.00000
    135       0.6335      2.00000
    136       0.6341      2.00000
    137       0.7010      2.00000
    138       0.7035      2.00000
    139       0.7292      2.00000
    140       0.7317      2.00000
    141       0.7665      2.00000
    142       0.7675      2.00000
    143       0.9078      2.00000
    144       0.9088      2.00000
    145       0.9386      2.00000
    146       0.9396      2.00000
    147       1.0630      2.00000
    148       1.0665      2.00000
    149       1.0830      2.00000
    150       1.0859      2.00000
    151       1.1051      2.00000
    152       1.1067      2.00000
    153       1.1210      2.00000
    154       1.1229      2.00000
    155       1.2051      2.00000
    156       1.2057      2.00000
    157       1.2363      2.00000
    158       1.2379      2.00000
    159       1.2998      2.00000
    160       1.3004      2.00000
    161       1.5144      2.00000
    162       1.5183      2.00000
    163       1.6144      2.00000
    164       1.6170      2.00000
    165       1.6208      2.00000
    166       1.6238      2.00000
    167       1.7306      2.00000
    168       1.7341      2.00000
    169       1.8048      2.00000
    170       1.8048      2.00000
    171       1.8723      2.00000
    172       1.8789      2.00000
    173       1.8962      2.00000
    174       1.9014      2.00000
    175       2.0561      2.00000
    176       2.0601      2.00000
    177       3.7404      0.00000
    178       3.7435      0.00000
    179       3.9436      0.00000
    180       3.9473      0.00000
    181       4.0731      0.00000
    182       4.0740      0.00000
    183       4.2585      0.00000
    184       4.2593      0.00000
    185       4.3468      0.00000
    186       4.3485      0.00000
    187       4.4540      0.00000
    188       4.4546      0.00000
    189       4.6476      0.00000
    190       4.6492      0.00000
    191       4.7330      0.00000
    192       4.7336      0.00000
    193       4.8487      0.00000
    194       4.8523      0.00000
    195       4.8803      0.00000
    196       4.8814      0.00000
    197       4.9847      0.00000
    198       4.9861      0.00000
    199       5.0588      0.00000
    200       5.0630      0.00000
    201       5.5763      0.00000
    202       5.5774      0.00000
    203       5.6016      0.00000
    204       5.6082      0.00000
    205       5.6297      0.00000
    206       5.6333      0.00000
    207       5.8330      0.00000
    208       5.8369      0.00000
    209       7.2681      0.00000
    210       7.2743      0.00000
    211       7.5410      0.00000


--------------------------------------------------------------------------------------------------------


 soft charge-density along one line, spin component           1
         0         1         2         3         4         5         6         7         8         9
 total charge-density along one line
 
 pseudopotential strength for first ion, spin component:           1
 -6.433   0.000   0.000   0.001   0.000  -6.569   0.000   0.000
  0.000  -6.441   0.001  -0.000  -0.001   0.000  -6.576   0.001
  0.000   0.001  -6.435  -0.001  -0.001   0.000   0.001  -6.571
  0.001  -0.000  -0.001  -6.438   0.001   0.001  -0.000  -0.001
  0.000  -0.001  -0.001   0.001  -6.425   0.000  -0.001  -0.001
 -6.569   0.000   0.000   0.001   0.000  -6.674   0.000   0.000
  0.000  -6.576   0.001  -0.000  -0.001   0.000  -6.681   0.001
  0.000   0.001  -6.571  -0.001  -0.001   0.000   0.001  -6.675
  0.001  -0.000  -0.001  -6.574   0.001   0.001  -0.000  -0.001
  0.000  -0.001  -0.001   0.001  -6.561   0.000  -0.001  -0.001
  0.000   0.001   0.000   0.000  -0.001   0.000   0.001   0.000
  0.001   0.001   0.000   0.000  -0.002   0.001   0.001  -0.000
 -0.001   0.006   0.004  -0.000   0.007  -0.001   0.005   0.004
 -0.000  -0.006   0.008  -0.001   0.000  -0.000  -0.006   0.008
 -0.006  -0.000   0.001   0.006  -0.001  -0.006  -0.000   0.001
 -0.002   0.007   0.005  -0.000   0.008  -0.002   0.007   0.004
 -0.000  -0.008   0.010  -0.002   0.000  -0.000  -0.007   0.009
 -0.008  -0.000   0.001   0.008  -0.002  -0.007  -0.000   0.001
 total augmentation occupancy for first ion, spin component:           1
  2.276   0.006  -0.052   0.006   0.022  -0.298  -0.009   0.053  -0.012  -0.018  -0.064   0.014  -0.000  -0.004   0.020  -0.000
  0.006   2.292   0.060  -0.002  -0.113  -0.009  -0.317  -0.059  -0.001   0.113  -0.138   0.023  -0.065   0.027  -0.001   0.006
 -0.052   0.060   3.839  -0.089   0.059   0.053  -0.059  -1.697   0.076  -0.065   0.173  -0.020   0.058   0.218  -0.002  -0.002
  0.006  -0.002  -0.089   2.295   0.124  -0.012  -0.001   0.076  -0.297  -0.114  -0.059   0.013   0.000  -0.010  -0.042   0.000
  0.022  -0.113   0.059   0.124   4.321  -0.018   0.113  -0.065  -0.114  -2.147   0.128  -0.026   0.113   0.013  -0.018  -0.003
 -0.298  -0.009   0.053  -0.012  -0.018   0.301   0.011  -0.053   0.017   0.015   0.055  -0.013   0.002   0.003  -0.012  -0.000
 -0.009  -0.317  -0.059  -0.001   0.113   0.011   0.323   0.058   0.004  -0.113   0.126  -0.026   0.050  -0.018   0.001  -0.003
  0.053  -0.059  -1.697   0.076  -0.065  -0.053   0.058   1.553  -0.064   0.071  -0.154   0.026  -0.056  -0.198  -0.000   0.004
 -0.012  -0.001   0.076  -0.297  -0.114   0.017   0.004  -0.064   0.283   0.106   0.053  -0.013   0.000   0.011   0.030  -0.000
 -0.018   0.113  -0.065  -0.114  -2.147   0.015  -0.113   0.071   0.106   1.975  -0.110   0.022  -0.105  -0.011   0.017   0.007
 -0.064  -0.138   0.173  -0.059   0.128   0.055   0.126  -0.154   0.053  -0.110   1.438  -0.308   0.043  -0.048   0.011  -0.004
  0.014   0.023  -0.020   0.013  -0.026  -0.013  -0.026   0.026  -0.013   0.022  -0.308   0.070  -0.008   0.011  -0.002   0.001
 -0.000  -0.065   0.058   0.000   0.113   0.002   0.050  -0.056   0.000  -0.105   0.043  -0.008   0.101   0.009   0.003  -0.007
 -0.004   0.027   0.218  -0.010   0.013   0.003  -0.018  -0.198   0.011  -0.011  -0.048   0.011   0.009   0.078   0.003  -0.001
  0.020  -0.001  -0.002  -0.042  -0.018  -0.012   0.001  -0.000   0.030   0.017   0.011  -0.002   0.003   0.003   0.089  -0.000
 -0.000   0.006  -0.002   0.000  -0.003  -0.000  -0.003   0.004  -0.000   0.007  -0.004   0.001  -0.007  -0.001  -0.000   0.001
  0.000  -0.005  -0.009  -0.000  -0.001  -0.000   0.001   0.013  -0.001   0.001   0.005  -0.001  -0.001  -0.005  -0.000   0.000
 -0.004   0.000   0.000   0.005   0.000   0.001  -0.000   0.000  -0.002  -0.001  -0.001   0.000  -0.000  -0.000  -0.006   0.000


------------------------ aborting loop because EDIFF is reached ----------------------------------------


 


 total charge     
 
# of ion       s       p       d       tot
------------------------------------------
    1        0.241   0.152   9.320   9.713
    2        0.238   0.146   9.323   9.708
    3        0.241   0.152   9.320   9.713
    4        0.239   0.148   9.323   9.709
    5        0.252   0.158   9.313   9.723
    6        0.252   0.157   9.313   9.722
    7        0.241   0.151   9.320   9.712
    8        0.241   0.151   9.320   9.712
    9        1.833   1.401   0.135   3.370
   10        1.835   1.397   0.139   3.371
   11        1.834   1.402   0.138   3.373
   12        1.834   1.401   0.138   3.373
   13        1.833   1.401   0.135   3.369
   14        1.834   1.401   0.138   3.373
   15        1.834   1.401   0.138   3.373
   16        1.835   1.397   0.139   3.371
   17        1.516   2.743   0.015   4.274
   18        1.517   2.745   0.013   4.275
   19        1.513   2.747   0.016   4.276
   20        1.513   2.747   0.016   4.276
   21        1.514   2.743   0.015   4.272
   22        1.515   2.743   0.015   4.272
   23        1.517   2.745   0.012   4.275
   24        1.516   2.744   0.015   4.274
   25        1.513   2.747   0.016   4.276
   26        1.513   2.747   0.016   4.276
   27        1.517   2.745   0.012   4.275
   28        1.516   2.744   0.015   4.274
   29        1.516   2.743   0.015   4.274
   30        1.517   2.745   0.013   4.275
   31        1.514   2.743   0.015   4.272
   32        1.515   2.743   0.015   4.272
   33        1.518   2.742   0.012   4.272
   34        1.514   2.742   0.017   4.273
   35        1.518   2.742   0.012   4.273
   36        1.518   2.742   0.013   4.273
   37        1.518   2.742   0.011   4.271
   38        1.518   2.742   0.011   4.271
   39        1.514   2.742   0.017   4.274
   40        1.518   2.742   0.012   4.272
   41        1.518   2.742   0.013   4.273
   42        1.518   2.742   0.012   4.273
   43        1.514   2.742   0.017   4.273
   44        1.518   2.742   0.012   4.272
   45        1.519   2.742   0.012   4.272
   46        1.514   2.742   0.017   4.274
   47        1.518   2.742   0.011   4.271
   48        1.518   2.742   0.011   4.271
--------------------------------------------------
tot         65.135 100.208  76.094 241.436
 


--------------------------------------------------------------------------------------------------------



  FREE ENERGIE OF THE ION-ELECTRON SYSTEM (eV)
  ---------------------------------------------------
  free  energy   TOTEN  =      -119.96598056 eV

  energy  without entropy=     -119.96598056  energy(sigma->0) =     -119.96598056
 


--------------------------------------------------------------------------------------------------------




--------------------------------------------------------------------------------------------------------


 writing wavefunctions
     LOOP+:  cpu time  119.5417: real time  119.6310
    4ORBIT:  cpu time    0.0000: real time    0.0000
 


 total charge     
 
# of ion       s       p       d       tot
------------------------------------------
    1        0.241   0.152   9.320   9.713
    2        0.238   0.146   9.323   9.708
    3        0.241   0.152   9.320   9.713
    4        0.239   0.148   9.323   9.709
    5        0.252   0.158   9.313   9.723
    6        0.252   0.157   9.313   9.722
    7        0.241   0.151   9.320   9.712
    8        0.241   0.151   9.320   9.712
    9        1.833   1.401   0.135   3.370
   10        1.835   1.397   0.139   3.371
   11        1.834   1.402   0.138   3.373
   12        1.834   1.401   0.138   3.373
   13        1.833   1.401   0.135   3.369
   14        1.834   1.401   0.138   3.373
   15        1.834   1.401   0.138   3.373
   16        1.835   1.397   0.139   3.371
   17        1.516   2.743   0.015   4.274
   18        1.517   2.745   0.013   4.275
   19        1.513   2.747   0.016   4.276
   20        1.513   2.747   0.016   4.276
   21        1.514   2.743   0.015   4.272
   22        1.515   2.743   0.015   4.272
   23        1.517   2.745   0.012   4.275
   24        1.516   2.744   0.015   4.274
   25        1.513   2.747   0.016   4.276
   26        1.513   2.747   0.016   4.276
   27        1.517   2.745   0.012   4.275
   28        1.516   2.744   0.015   4.274
   29        1.516   2.743   0.015   4.274
   30        1.517   2.745   0.013   4.275
   31        1.514   2.743   0.015   4.272
   32        1.515   2.743   0.015   4.272
   33        1.518   2.742   0.012   4.272
   34        1.514   2.742   0.017   4.273
   35        1.518   2.742   0.012   4.273
   36        1.518   2.742   0.013   4.273
   37        1.518   2.742   0.011   4.271
   38        1.518   2.742   0.011   4.271
   39        1.514   2.742   0.017   4.274
   40        1.518   2.742   0.012   4.272
   41        1.518   2.742   0.013   4.273
   42        1.518   2.742   0.012   4.273
   43        1.514   2.742   0.017   4.273
   44        1.518   2.742   0.012   4.272
   45        1.519   2.742   0.012   4.272
   46        1.514   2.742   0.017   4.274
   47        1.518   2.742   0.011   4.271
   48        1.518   2.742   0.011   4.271
--------------------------------------------------
tot         65.135 100.208  76.094 241.436
 
 BZINTS: Fermi energy:    2.093669;  352.000000 electrons
         Band energy:-0.747410E+03;  BLOECHL correction:    0.000000

 total amount of memory used by VASP MPI-rank0  2761676. kBytes
=======================================================================

   base      :      30000. kBytes
   nonl-proj :     301348. kBytes
   fftplans  :      34720. kBytes
   grid      :      70000. kBytes
   one-center:        746. kBytes
   wavefun   :    2324862. kBytes
 
  
  
 General timing and accounting informations for this job:
 ========================================================
  
                  Total CPU time used (sec):      158.870
                            User time (sec):      154.143
                          System time (sec):        4.726
                         Elapsed time (sec):      160.577
  
                   Maximum memory used (kb):     4307208.
                   Average memory used (kb):           0.
  
                          Minor page faults:       423179
                          Major page faults:           14
                 Voluntary context switches:         2541
