 vasp.6.1.0 28Jan20 (build Jan 13 2021 21:44:47) complex                        
  
 executed on             LinuxIFC date 2021.09.12  19:33:04
 running on    9 total cores
 distrk:  each k-point on    1 cores,    9 groups
 distr:  one band on NCORE=   1 cores,    1 groups


--------------------------------------------------------------------------------------------------------


 INCAR:
 POTCAR:    PAW_PBE Ag 02Apr2005                  
 POTCAR:    PAW_PBE Bi 08Apr2002                  
 POTCAR:    PAW_PBE I 08Apr2002                   
 -----------------------------------------------------------------------------
|                                                                             |
|           W    W    AA    RRRRR   N    N  II  N    N   GGGG   !!!           |
|           W    W   A  A   R    R  NN   N  II  NN   N  G    G  !!!           |
|           W    W  A    A  R    R  N N  N  II  N N  N  G       !!!           |
|           W WW W  AAAAAA  RRRRR   N  N N  II  N  N N  G  GGG   !            |
|           WW  WW  A    A  R   R   N   NN  II  N   NN  G    G                |
|           W    W  A    A  R    R  N    N  II  N    N   GGGG   !!!           |
|                                                                             |
|     For optimal performance we recommend to set                             |
|       NCORE = 4 - approx SQRT(number of cores).                             |
|     NCORE specifies how many cores store one orbital (NPAR=cpu/NCORE).      |
|     This setting can greatly improve the performance of VASP for DFT.       |
|     The default, NCORE=1 might be grossly inefficient on modern             |
|     multi-core architectures or massively parallel machines. Do your        |
|     own testing!!!!                                                         |
|     Unfortunately you need to use the default for GW and RPA                |
|     calculations (for HF NCORE is supported but not extensively tested      |
|     yet).                                                                   |
|                                                                             |
 -----------------------------------------------------------------------------

 POTCAR:    PAW_PBE Ag 02Apr2005                  
   VRHFIN =Ag : s1 d10                                                                              
   LEXCH  = PE                                                                                      
   EATOM  =  1037.2675 eV,   76.2370 Ry                                                             
                                                                                                    
   TITEL  = PAW_PBE Ag 02Apr2005                                                                    
   LULTRA =        F    use ultrasoft PP ?                                                          
   IUNSCR =        1    unscreen: 0-lin 1-nonlin 2-no                                               
   RPACOR =    2.000    partial core radius                                                         
   POMASS =  107.868; ZVAL   =   11.000    mass and valenz                                          
   RCORE  =    2.500    outmost cutoff radius                                                       
   RWIGS  =    2.840; RWIGS  =    1.503    wigner-seitz radius (au A)                               
   ENMAX  =  249.844; ENMIN  =  187.383 eV                                                          
   ICORE  =        3    local potential                                                             
   LCOR   =        T    correct aug charges                                                         
   LPAW   =        T    paw PP                                                                      
   EAUG   =  412.496                                                                                
   DEXC   =    0.000                                                                                
   RMAX   =    2.560    core radius for proj-oper                                                   
   RAUG   =    1.300    factor for augmentation sphere                                              
   RDEP   =    2.576    radius for radial grids                                                     
   RDEPT  =    2.072    core radius for aug-charge                                                  
                                                                                                    
   Atomic configuration                                                                             
   12 entries                                                                                       
     n  l   j            E        occ.                                                              
     1  0  0.50    -25324.9161   2.0000                                                             
     2  0  0.50     -3728.5341   2.0000                                                             
     2  1  1.50     -3344.0404   6.0000                                                             
     3  0  0.50      -683.5581   2.0000                                                             
     3  1  1.50      -557.3225   6.0000                                                             
     3  2  2.50      -358.3853  10.0000                                                             
     4  0  0.50       -95.0341   2.0000                                                             
     4  1  1.50       -58.5511   6.0000                                                             
     4  2  2.50        -7.4440  10.0000                                                             
     5  0  0.50        -4.4045   1.0000                                                             
     5  1  0.50        -1.3606   0.0000                                                             
     4  3  2.50        -1.3606   0.0000                                                             
   Description                                                                                      
     l       E           TYP  RCUT    TYP  RCUT                                                     
     2     -7.4439781     23  2.400                                                                 
     2     -8.8045607     23  2.400                                                                 
     0     -4.4044681     23  2.400                                                                 
     0      1.9520038     23  2.400                                                                 
     1     -1.3605826     23  2.500                                                                 
     1     27.2116520     23  2.500                                                                 
     3     -4.0817478     23  2.400                                                                 
  local pseudopotential read in
  partial core-charges read in
  partial kinetic energy density read in
  atomic valenz-charges read in
  non local Contribution for L=           2  read in
    real space projection operators read in
  non local Contribution for L=           2  read in
    real space projection operators read in
  non local Contribution for L=           0  read in
    real space projection operators read in
  non local Contribution for L=           0  read in
    real space projection operators read in
  non local Contribution for L=           1  read in
    real space projection operators read in
  non local Contribution for L=           1  read in
    real space projection operators read in
    PAW grid and wavefunctions read in
 
   number of l-projection  operators is LMAX  =           6
   number of lm-projection operators is LMMAX =          18
 
 POTCAR:    PAW_PBE Bi 08Apr2002                  
   VRHFIN =Bi:                                                                                      
   LEXCH  = PE                                                                                      
   EATOM  =   150.8133 eV,   11.0845 Ry                                                             
                                                                                                    
   TITEL  = PAW_PBE Bi 08Apr2002                                                                    
   LULTRA =        F    use ultrasoft PP ?                                                          
   IUNSCR =        1    unscreen: 0-lin 1-nonlin 2-no                                               
   RPACOR =    2.200    partial core radius                                                         
   POMASS =  208.980; ZVAL   =    5.000    mass and valenz                                          
   RCORE  =    3.000    outmost cutoff radius                                                       
   RWIGS  =    3.090; RWIGS  =    1.635    wigner-seitz radius (au A)                               
   ENMAX  =  105.037; ENMIN  =   78.777 eV                                                          
   ICORE  =        3    local potential                                                             
   LCOR   =        T    correct aug charges                                                         
   LPAW   =        T    paw PP                                                                      
   EAUG   =  265.427                                                                                
   DEXC   =    0.000                                                                                
   RMAX   =    3.067    core radius for proj-oper                                                   
   RAUG   =    1.300    factor for augmentation sphere                                              
   RDEP   =    3.012    radius for radial grids                                                     
   RDEPT  =    2.604    core radius for aug-charge                                                  
                                                                                                    
   Atomic configuration                                                                             
   17 entries                                                                                       
     n  l   j            E        occ.                                                              
     1  0  0.50    -90639.6582   2.0000                                                             
     2  0  0.50    -16282.4667   2.0000                                                             
     2  1  1.50    -13922.8287   6.0000                                                             
     3  0  0.50     -3930.4763   2.0000                                                             
     3  1  1.50     -3256.7013   6.0000                                                             
     3  2  2.50     -2581.6169  10.0000                                                             
     4  0  0.50      -902.2614   2.0000                                                             
     4  1  1.50      -681.5915   6.0000                                                             
     4  2  2.50      -429.8249  10.0000                                                             
     4  3  3.50      -152.6004  14.0000                                                             
     5  0  0.50      -157.7156   2.0000                                                             
     5  1  1.50       -95.8054   6.0000                                                             
     5  2  2.50       -27.0806  10.0000                                                             
     6  0  0.50       -14.4732   2.0000                                                             
     6  1  1.50        -4.5702   3.0000                                                             
     6  2  2.50        -2.7212   0.0000                                                             
     5  3  2.50        -2.7212   0.0000                                                             
   Description                                                                                      
     l       E           TYP  RCUT    TYP  RCUT                                                     
     0    -14.4732299     23  3.000                                                                 
     0    -12.2452434     23  3.000                                                                 
     1     -4.5701666     23  3.000                                                                 
     1    -13.6058260     23  3.000                                                                 
     2     -2.7211652     23  3.000                                                                 
     3     -1.3605826      7  3.000                                                                 
  local pseudopotential read in
  partial core-charges read in
  partial kinetic energy density read in
  kinetic energy density of atom read in
  atomic valenz-charges read in
  non local Contribution for L=           0  read in
    real space projection operators read in
  non local Contribution for L=           0  read in
    real space projection operators read in
  non local Contribution for L=           1  read in
    real space projection operators read in
  non local Contribution for L=           1  read in
    real space projection operators read in
  non local Contribution for L=           2  read in
    real space projection operators read in
    PAW grid and wavefunctions read in
 
   number of l-projection  operators is LMAX  =           5
   number of lm-projection operators is LMMAX =          13
 
 POTCAR:    PAW_PBE I 08Apr2002                   
   VRHFIN =I : s2p5                                                                                 
   LEXCH  = PE                                                                                      
   EATOM  =   315.8678 eV,   23.2156 Ry                                                             
                                                                                                    
   TITEL  = PAW_PBE I 08Apr2002                                                                     
   LULTRA =        F    use ultrasoft PP ?                                                          
   IUNSCR =        1    unscreen: 0-lin 1-nonlin 2-no                                               
   RPACOR =    2.200    partial core radius                                                         
   POMASS =  126.904; ZVAL   =    7.000    mass and valenz                                          
   RCORE  =    2.300    outmost cutoff radius                                                       
   RWIGS  =    2.810; RWIGS  =    1.487    wigner-seitz radius (au A)                               
   ENMAX  =  175.647; ENMIN  =  131.735 eV                                                          
   ICORE  =        3    local potential                                                             
   LCOR   =        T    correct aug charges                                                         
   LPAW   =        T    paw PP                                                                      
   EAUG   =  370.139                                                                                
   DEXC   =    0.000                                                                                
   RMAX   =    2.359    core radius for proj-oper                                                   
   RAUG   =    1.300    factor for augmentation sphere                                              
   RDEP   =    2.392    radius for radial grids                                                     
   RDEPT  =    2.170    core radius for aug-charge                                                  
                                                                                                    
   Atomic configuration                                                                             
   13 entries                                                                                       
     n  l   j            E        occ.                                                              
     1  0  0.50    -32976.3739   2.0000                                                             
     2  0  0.50     -5094.5933   2.0000                                                             
     2  1  1.50     -4572.0131   6.0000                                                             
     3  0  0.50     -1028.2813   2.0000                                                             
     3  1  1.50      -859.0250   6.0000                                                             
     3  2  2.50      -605.7620  10.0000                                                             
     4  0  0.50      -180.5540   2.0000                                                             
     4  1  1.50      -127.5306   6.0000                                                             
     4  2  2.50       -50.2720  10.0000                                                             
     5  0  0.50       -17.4058   2.0000                                                             
     5  1  0.50        -7.0851   5.0000                                                             
     5  2  1.50        -7.0750   0.0000                                                             
     4  3  2.50        -7.0750   0.0000                                                             
   Description                                                                                      
     l       E           TYP  RCUT    TYP  RCUT                                                     
     0    -17.4058016     23  2.300                                                                 
     0    -18.7663842     23  2.300                                                                 
     1     -7.0850686     23  2.300                                                                 
     1     -4.2150896     23  2.300                                                                 
     2     -7.0750295     23  2.300                                                                 
     3     -1.3605826     23  2.300                                                                 
  local pseudopotential read in
  partial core-charges read in
  partial kinetic energy density read in
  atomic valenz-charges read in
  non local Contribution for L=           0  read in
    real space projection operators read in
  non local Contribution for L=           0  read in
    real space projection operators read in
  non local Contribution for L=           1  read in
    real space projection operators read in
  non local Contribution for L=           1  read in
    real space projection operators read in
  non local Contribution for L=           2  read in
    real space projection operators read in
    PAW grid and wavefunctions read in
 
   number of l-projection  operators is LMAX  =           5
   number of lm-projection operators is LMMAX =          13
 
 -----------------------------------------------------------------------------
|                                                                             |
|               ----> ADVICE to this user running VASP <----                  |
|                                                                             |
|     You have a (more or less) 'large supercell' and for larger cells it     |
|     might be more efficient to use real-space projection operators.         |
|     Therefore, try LREAL= Auto in the INCAR file.                           |
|     Mind: For very accurate calculation, you might also keep the            |
|     reciprocal projection scheme (i.e. LREAL=.FALSE.).                      |
|                                                                             |
 -----------------------------------------------------------------------------

  PAW_PBE Ag 02Apr2005                  :
 energy of atom  1       EATOM=-1037.2675
 kinetic energy error for atom=    0.0686 (will be added to EATOM!!)
  PAW_PBE Bi 08Apr2002                  :
 energy of atom  2       EATOM= -150.8133
 kinetic energy error for atom=    0.0004 (will be added to EATOM!!)
  PAW_PBE I 08Apr2002                   :
 energy of atom  3       EATOM= -315.8678
 kinetic energy error for atom=    0.0044 (will be added to EATOM!!)
 
 
 POSCAR: Generation Seed Number
  positions in direct lattice
  velocities in cartesian coordinates
 exchange correlation table for  LEXCH =        8
   RHO(1)=    0.500       N(1)  =     2000
   RHO(2)=  100.500       N(2)  =     4000
 


--------------------------------------------------------------------------------------------------------


 ion  position               nearest neighbor table
   1  0.000  0.024  0.976-  21 2.96  17 2.96  34 2.97  25 2.97
   2  0.225  0.255  0.987-  42 2.94  25 2.98  19 3.06  17 3.11  41 3.23  29 3.58
   3  0.775  0.011  0.745-  46 2.95  34 2.98  22 3.06  21 3.13  48 3.19  38 3.59
   4  0.726  0.494  0.260-  24 2.94  39 2.98  45 3.07  23 3.14  47 3.16  35 3.58
   5  0.500  0.724  0.276-  43 2.95  47 2.95  32 2.97  39 2.97
   6  0.254  0.499  0.747-  42 3.02  20 3.03  44 3.05  19 3.10  40 3.22  36 3.33
   7  0.753  0.253  0.503-  46 3.02  24 3.03  45 3.06  22 3.09  26 3.23  30 3.31
   8  0.275  0.741  0.506-  20 2.94  32 2.98  44 3.08  18 3.13  43 3.17  28 3.58
   9  0.496  0.498  0.002-  19 3.03  39 3.05  29 3.12  31 3.15  23 3.20  40 3.21
  10  0.750  0.752  0.003-  47 3.07  21 3.07  31 3.14  27 3.14  48 3.18  23 3.19
  11  0.997  0.251  0.250-  45 3.04  25 3.06  35 3.13  33 3.14  41 3.19  26 3.20
  12  1.000  0.501  0.500-  36 3.11  24 3.11  20 3.11  26 3.12  28 3.13  35 3.14
  13  0.003  0.750  0.749-  44 3.04  34 3.06  28 3.13  27 3.14  48 3.19  36 3.20
  14  0.251  0.998  0.249-  43 3.07  17 3.08  37 3.14  33 3.14  41 3.18  18 3.18
  15  0.504  0.999  0.502-  22 3.03  32 3.06  38 3.13  37 3.14  30 3.20  18 3.20
  16  0.500  0.250  0.750-  30 3.11  46 3.11  42 3.11  40 3.12  38 3.14  29 3.14
  17  0.230  0.011  0.008-   1 2.96  14 3.08   2 3.11
  18  0.253  0.986  0.498-   8 3.13  14 3.18  15 3.20
  19  0.258  0.493  0.990-   9 3.03   2 3.06   6 3.10
  20  0.244  0.512  0.509-   8 2.94   6 3.03  12 3.11
  21  0.770  0.992  0.991-   1 2.96  10 3.07   3 3.13
  22  0.742  0.010  0.507-  15 3.03   3 3.06   7 3.09
  23  0.747  0.502  0.014-   4 3.14  10 3.19   9 3.20
  24  0.756  0.491  0.489-   4 2.94   7 3.03  12 3.11
  25  0.992  0.255  0.010-   1 2.97   2 2.98  11 3.06
  26  0.007  0.255  0.501-  12 3.12  11 3.20   7 3.23
  27  0.996  0.740  0.996-  13 3.14  10 3.14
  28  0.993  0.747  0.504-  13 3.13  12 3.13   8 3.58
  29  0.507  0.253  0.997-   9 3.12  16 3.14   2 3.58
  30  0.493  0.250  0.506-  16 3.11  15 3.20   7 3.31
  31  0.504  0.745  0.990-  10 3.14   9 3.15
  32  0.509  0.758  0.506-   5 2.97   8 2.98  15 3.06
  33  0.004  0.004  0.260-  14 3.14  11 3.14
  34  0.008  0.991  0.745-   1 2.97   3 2.98  13 3.06
  35  0.007  0.496  0.254-  11 3.13  12 3.14   4 3.58
  36  0.993  0.500  0.745-  12 3.11  13 3.20   6 3.33
  37  0.497  0.011  0.256-  14 3.14  15 3.14
  38  0.493  0.004  0.747-  15 3.13  16 3.14   3 3.59
  39  0.492  0.494  0.242-   5 2.97   4 2.98   9 3.05
  40  0.507  0.495  0.750-  16 3.12   9 3.21   6 3.22
  41  0.247  0.248  0.240-  14 3.18  11 3.19   2 3.23
  42  0.256  0.261  0.758-   2 2.94   6 3.02  16 3.11
  43  0.272  0.758  0.258-   5 2.95  14 3.07   8 3.17
  44  0.242  0.738  0.746-  13 3.04   6 3.05   8 3.08
  45  0.759  0.255  0.262-  11 3.04   7 3.06   4 3.07
  46  0.744  0.240  0.739-   3 2.95   7 3.02  16 3.11
  47  0.729  0.742  0.243-   5 2.95  10 3.07   4 3.16
  48  0.753  0.762  0.753-  10 3.18   3 3.19  13 3.19
 
 -----------------------------------------------------------------------------
|                                                                             |
|           W    W    AA    RRRRR   N    N  II  N    N   GGGG   !!!           |
|           W    W   A  A   R    R  NN   N  II  NN   N  G    G  !!!           |
|           W    W  A    A  R    R  N N  N  II  N N  N  G       !!!           |
|           W WW W  AAAAAA  RRRRR   N  N N  II  N  N N  G  GGG   !            |
|           WW  WW  A    A  R   R   N   NN  II  N   NN  G    G                |
|           W    W  A    A  R    R  N    N  II  N    N   GGGG   !!!           |
|                                                                             |
|     The determination of the symmetry of your systems shows a strong        |
|     dependence on the tolerance parameter SYMPREC. This is often the        |
|     result of "noise" in the structural parameters (lattice vectors         |
|     and/or ionic positions). Set NWRITE=3 for more details.                 |
|                                                                             |
 -----------------------------------------------------------------------------

  LATTYP: Found a base centered monoclinic cell.
 ALAT       =    31.1753544606
 B/A-ratio  =     0.5772880680
 C/A-ratio  =     0.7070871563
 COS(beta)  =    -0.9427844688
  
  Lattice vectors:
  
 A1 = (  12.7258144687, -12.7280340884,  -0.0001142161)
 A2 = (  -0.0000878034, -12.7281092946,  12.7258114720)
 A3 = ( -12.7269684026,  12.7271783553, -12.7266490369)


Analysis of symmetry for initial positions (statically):
=====================================================================
 Subroutine PRICEL returns:
 Original cell was already a primitive cell.
 

 Routine SETGRP: Setting up the symmetry group for a 
 base centered monoclinic supercell.


 Subroutine GETGRP returns: Found  1 space group operations
 (whereof  1 operations were pure point group operations)
 out of a pool of  4 trial point group operations.


The static configuration has the point symmetry C_1 .


Analysis of symmetry for dynamics (positions and initial velocities):
=====================================================================
 Subroutine PRICEL returns:
 Original cell was already a primitive cell.
 

 Routine SETGRP: Setting up the symmetry group for a 
 base centered monoclinic supercell.


 Subroutine GETGRP returns: Found  1 space group operations
 (whereof  1 operations were pure point group operations)
 out of a pool of  4 trial point group operations.


The dynamic configuration has the point symmetry C_1 .


 Subroutine INISYM returns: Found  1 space group operations
 (whereof  1 operations are pure point group operations),
 and found     1 'primitive' translations


----------------------------------------------------------------------------------------

                                     Primitive cell                                     

  volume of cell :    2061.7643

  direct lattice vectors                    reciprocal lattice vectors
    12.727056206  0.000930939  0.000837565     0.078572766 -0.000007664 -0.000007124
     0.001241737 12.728965028  0.000951781    -0.000005746  0.078560984 -0.000005282
     0.001153934  0.000855733 12.726763253    -0.000005171 -0.000005875  0.078574575

  length of vectors
    12.727056268 12.728965124 12.726763334     0.078572767  0.078560984  0.078574575

  position of ions in fractional coordinates (direct lattice)
     0.000152338  0.024413364  0.975831410
     0.225209783  0.254798348  0.987365454
     0.775070013  0.011109070  0.745306661
     0.725631501  0.493920251  0.260045123
     0.500090423  0.724069102  0.276066475
     0.254271702  0.498532875  0.746553363
     0.753337985  0.252809653  0.502655352
     0.274767303  0.740656130  0.505865604
     0.496259226  0.497898699  0.002041592
     0.749770055  0.751850719  0.002598707
     0.996994883  0.251156499  0.249776676
     0.999962567  0.500524742  0.500346079
     0.003479154  0.750322561  0.749374595
     0.250628697  0.998181124  0.248514000
     0.504235697  0.998575069  0.502017144
     0.500098941  0.250010819  0.749647673
     0.230345732  0.011124883  0.007958530
     0.252846875  0.985629625  0.498304254
     0.258471982  0.492636086  0.990302885
     0.244228630  0.511742207  0.509175755
     0.770306265  0.992199690  0.990725933
     0.741943798  0.009971335  0.506845947
     0.747431935  0.501907363  0.014269428
     0.755779642  0.490787375  0.489094661
     0.992241707  0.255274312  0.009681629
     0.006791590  0.255496764  0.501270175
     0.996249474  0.740097162  0.995839020
     0.993363708  0.746602184  0.503814902
     0.506584411  0.252743071  0.996601906
     0.493277846  0.249703121  0.505549835
     0.503818470  0.744564745  0.989918574
     0.508521947  0.758450180  0.506408010
     0.004294538  0.004499584  0.259985534
     0.008344393  0.990713309  0.745219420
     0.006697024  0.496454394  0.253770161
     0.992638692  0.499569421  0.744768337
     0.496666762  0.010825033  0.255634531
     0.493280525  0.003651715  0.747494087
     0.491836661  0.493639639  0.241901811
     0.506893879  0.494745863  0.750289462
     0.247136320  0.247721401  0.240212592
     0.255846951  0.261470430  0.758409124
     0.271571710  0.757843609  0.257790178
     0.241793943  0.737980208  0.745700895
     0.758561694  0.254720793  0.262185728
     0.744277994  0.240366629  0.739322335
     0.728944750  0.741776533  0.242780825
     0.753003424  0.761742887  0.752739496

  ion indices of the primitive-cell ions
   primitive index   ion index
                 1           1
                 2           2
                 3           3
                 4           4
                 5           5
                 6           6
                 7           7
                 8           8
                 9           9
                10          10
                11          11
                12          12
                13          13
                14          14
                15          15
                16          16
                17          17
                18          18
                19          19
                20          20
                21          21
                22          22
                23          23
                24          24
                25          25
                26          26
                27          27
                28          28
                29          29
                30          30
                31          31
                32          32
                33          33
                34          34
                35          35
                36          36
                37          37
                38          38
                39          39
                40          40
                41          41
                42          42
                43          43
                44          44
                45          45
                46          46
                47          47
                48          48

----------------------------------------------------------------------------------------

 
 
 KPOINTS: agbii                                   

Automatic generation of k-mesh.
Space group operators:
 irot       det(A)        alpha          n_x          n_y          n_z        tau_x        tau_y        tau_z
    1     1.000000     0.000001     1.000000     0.000000     0.000000     0.000000     0.000000     0.000000
 TETIRR: Found    192 inequivalent tetrahedra from      384
 
 Subroutine IBZKPT returns following result:
 ===========================================
 
 Found     36 irreducible k-points:
 
 Following reciprocal coordinates:
            Coordinates               Weight
  0.000000  0.000000  0.000000      1.000000
  0.250000 -0.000000  0.000000      2.000000
 -0.000000  0.000000 -0.250000      2.000000
  0.500000 -0.000000  0.000000      1.000000
  0.000000  0.000000  0.500000      1.000000
  0.000000  0.250000 -0.000000      2.000000
  0.250000  0.250000 -0.000000      2.000000
  0.000000 -0.250000 -0.250000      2.000000
  0.500000  0.250000 -0.000000      2.000000
 -0.000000 -0.250000  0.500000      2.000000
 -0.250000  0.250000 -0.000000      2.000000
  0.000000 -0.250000  0.250000      2.000000
  0.000000  0.500000  0.000000      1.000000
  0.250000  0.500000  0.000000      2.000000
  0.000000  0.500000 -0.250000      2.000000
  0.500000  0.500000  0.000000      1.000000
 -0.000000  0.500000  0.500000      1.000000
  0.250000 -0.000000  0.250000      2.000000
  0.500000 -0.000000  0.250000      2.000000
 -0.250000  0.000000  0.500000      2.000000
 -0.250000  0.000000  0.250000      2.000000
  0.250000  0.250000  0.250000      2.000000
  0.500000  0.250000  0.250000      2.000000
 -0.250000 -0.250000  0.500000      2.000000
 -0.250000  0.250000  0.250000      2.000000
 -0.250000 -0.250000  0.250000      2.000000
  0.250000  0.500000  0.250000      2.000000
  0.500000  0.500000  0.250000      2.000000
 -0.250000  0.500000  0.500000      2.000000
 -0.250000  0.500000  0.250000      2.000000
  0.250000 -0.250000  0.250000      2.000000
  0.500000 -0.250000  0.250000      2.000000
 -0.250000  0.250000  0.500000      2.000000
  0.500000 -0.000000  0.500000      1.000000
  0.500000  0.250000  0.500000      2.000000
  0.500000  0.500000  0.500000      1.000000
 
 Following cartesian coordinates:
            Coordinates               Weight
  0.000000  0.000000  0.000000      1.000000
  0.019643 -0.000002 -0.000002      2.000000
  0.000001  0.000001 -0.019644      2.000000
  0.039286 -0.000004 -0.000004      1.000000
 -0.000003 -0.000003  0.039287      1.000000
 -0.000001  0.019640 -0.000001      2.000000
  0.019642  0.019638 -0.000003      2.000000
  0.000003 -0.019639 -0.019642      2.000000
  0.039285  0.019636 -0.000005      2.000000
 -0.000001 -0.019643  0.039289      2.000000
 -0.019645  0.019642  0.000000      2.000000
  0.000000 -0.019642  0.019645      2.000000
 -0.000003  0.039280 -0.000003      1.000000
  0.019640  0.039279 -0.000004      2.000000
 -0.000002  0.039282 -0.019646      2.000000
  0.039284  0.039277 -0.000006      1.000000
 -0.000005  0.039278  0.039285      1.000000
  0.019642 -0.000003  0.019642      2.000000
  0.039285 -0.000005  0.019640      2.000000
 -0.019646 -0.000001  0.039289      2.000000
 -0.019644  0.000000  0.019645      2.000000
  0.019640  0.019637  0.019641      2.000000
  0.039284  0.019635  0.019639      2.000000
 -0.019644 -0.019641  0.039290      2.000000
 -0.019646  0.019641  0.019644      2.000000
 -0.019643 -0.019640  0.019647      2.000000
  0.019639  0.039277  0.019639      2.000000
  0.039282  0.039275  0.019637      2.000000
 -0.019649  0.039279  0.039286      2.000000
 -0.019647  0.039281  0.019643      2.000000
  0.019643 -0.019644  0.019643      2.000000
  0.039287 -0.019646  0.019641      2.000000
 -0.019647  0.019639  0.039288      2.000000
  0.039284 -0.000007  0.039284      1.000000
  0.039282  0.019633  0.039282      2.000000
  0.039281  0.039274  0.039281      1.000000
 


--------------------------------------------------------------------------------------------------------




 Dimension of arrays:
   k-points           NKPTS =     36   k-points in BZ     NKDIM =     36   number of bands    NBANDS=    211
   number of dos      NEDOS =   3000   number of ions     NIONS =     48
   non local maximal  LDIM  =      6   non local SUM 2l+1 LMDIM =     18
   total plane-waves  NPLWV = 125000
   max r-space proj   IRMAX =      1   max aug-charges    IRDMAX=   5974
   dimension x,y,z NGX =    50 NGY =   50 NGZ =   50
   dimension x,y,z NGXF=   100 NGYF=  100 NGZF=  100
   support grid    NGXF=   100 NGYF=  100 NGZF=  100
   ions per type =               8   8  32
   NGX,Y,Z   is equivalent  to a cutoff of   6.53,  6.53,  6.53 a.u.
   NGXF,Y,Z  is equivalent  to a cutoff of  13.06, 13.06, 13.06 a.u.

 SYSTEM =  unknown system                          
 POSCAR =  Generation Seed Number                  

 Startparameter for this run:
   NWRITE =      2    write-flag & timer
   PREC   = normal    normal or accurate (medium, high low for compatibility)
   ISTART =      1    job   : 0-new  1-cont  2-samecut
   ICHARG =      1    charge: 1-file 2-atom 10-const
   ISPIN  =      1    spin polarized calculation?
   LNONCOLLINEAR =      F non collinear calculations
   LSORBIT =      F    spin-orbit coupling
   INIWAV =      1    electr: 0-lowe 1-rand  2-diag
   LASPH  =      F    aspherical Exc in radial PAW
   METAGGA=      F    non-selfconsistent MetaGGA calc.

 Electronic Relaxation 1
   ENCUT  =  250.0 eV  18.37 Ry    4.29 a.u.  16.41 16.41 16.41*2*pi/ulx,y,z
   ENINI  =  250.0     initial cutoff
   ENAUG  =  412.5 eV  augmentation charge cutoff
   NELM   =     60;   NELMIN=  2; NELMDL=  0     # of ELM steps 
   EDIFF  = 0.1E-05   stopping-criterion for ELM
   LREAL  =      F    real-space projection
   NLSPLINE    = F    spline interpolate recip. space projectors
   LCOMPAT=      F    compatible to vasp.4.4
   GGA_COMPAT  = T    GGA compatible to vasp.4.4-vasp.4.6
   LMAXPAW     = -100 max onsite density
   LMAXMIX     =    4 max onsite mixed and CHGCAR
   VOSKOWN=      0    Vosko Wilk Nusair interpolation
   ROPT   =    0.00000   0.00000   0.00000
 Ionic relaxation
   EDIFFG = -.1E-01   stopping-criterion for IOM
   NSW    =      0    number of steps for IOM
   NBLOCK =      1;   KBLOCK =      1    inner block; outer block 
   IBRION =     -1    ionic relax: 0-MD 1-quasi-New 2-CG
   NFREE  =      0    steps in history (QN), initial steepest desc. (CG)
   ISIF   =     -1    stress and relaxation
   IWAVPR =     10    prediction:  0-non 1-charg 2-wave 3-comb
   ISYM   =      2    0-nonsym 1-usesym 2-fastsym
   LCORR  =      T    Harris-Foulkes like correction to forces

   POTIM  = 0.5000    time-step for ionic-motion
   TEIN   =    0.0    initial temperature
   TEBEG  =    0.0;   TEEND  =   0.0 temperature during run
   SMASS  =  -3.00    Nose mass-parameter (am)
   estimated Nose-frequenzy (Omega)   =  0.10E-29 period in steps = 0.13E+47 mass=  -0.370E-26a.u.
   SCALEE = 1.0000    scale energy and forces
   NPACO  =    256;   APACO  = 16.0  distance and # of slots for P.C.
   PSTRESS=    0.0 pullay stress

  Mass of Ions in am
   POMASS = 107.87208.98126.90
  Ionic Valenz
   ZVAL   =  11.00  5.00  7.00
  Atomic Wigner-Seitz radii
   RWIGS  =  -1.00 -1.00 -1.00
  virtual crystal weights 
   VCA    =   1.00  1.00  1.00
   NELECT =     352.0000    total number of electrons
   NUPDOWN=      -1.0000    fix difference up-down

 DOS related values:
   EMIN   =  10.00;   EMAX   =-10.00  energy-range for DOS
   EFERMI =   0.00
   ISMEAR =    -5;   SIGMA  =   0.20  broadening in eV -4-tet -1-fermi 0-gaus

 Electronic relaxation 2 (details)
   IALGO  =     38    algorithm
   LDIAG  =      T    sub-space diagonalisation (order eigenvalues)
   LSUBROT=      F    optimize rotation matrix (better conditioning)
   TURBO    =      0    0=normal 1=particle mesh
   IRESTART =      0    0=no restart 2=restart with 2 vectors
   NREBOOT  =      0    no. of reboots
   NMIN     =      0    reboot dimension
   EREF     =   0.00    reference energy to select bands
   IMIX   =      4    mixing-type and parameters
     AMIX     =   0.40;   BMIX     =  1.00
     AMIX_MAG =   1.60;   BMIX_MAG =  1.00
     AMIN     =   0.10
     WC   =   100.;   INIMIX=   1;  MIXPRE=   1;  MAXMIX= -45

 Intra band minimization:
   WEIMIN = 0.0000     energy-eigenvalue tresh-hold
   EBREAK =  0.12E-08  absolut break condition
   DEPER  =   0.30     relativ break condition  

   TIME   =   0.40     timestep for ELM

  volume/ion in A,a.u.               =      42.95       289.86
  Fermi-wavevector in a.u.,A,eV,Ry     =   0.908189  1.716228 11.222174  0.824807
  Thomas-Fermi vector in A             =   2.032085
 
 Write flags
   LWAVE        =      T    write WAVECAR
   LDOWNSAMPLE  =      F    k-point downsampling of WAVECAR
   LCHARG       =      T    write CHGCAR
   LVTOT        =      F    write LOCPOT, total local potential
   LVHAR        =      F    write LOCPOT, Hartree potential only
   LELF         =      F    write electronic localiz. function (ELF)
   LORBIT       =     10    0 simple, 1 ext, 2 COOP (PROOUT), +10 PAW based schemes


 Dipole corrections
   LMONO  =      F    monopole corrections only (constant potential shift)
   LDIPOL =      F    correct potential (dipole corrections)
   IDIPOL =      0    1-x, 2-y, 3-z, 4-all directions 
   EPSILON=  1.0000000 bulk dielectric constant

 Exchange correlation treatment:
   GGA     =    --    GGA type
   LEXCH   =     8    internal setting for exchange type
   VOSKOWN=      0    Vosko Wilk Nusair interpolation
   LHFCALC =     F    Hartree Fock is set to
   LHFONE  =     F    Hartree Fock one center treatment
   AEXX    =    0.0000 exact exchange contribution

 Linear response parameters
   LEPSILON=     F    determine dielectric tensor
   LRPA    =     F    only Hartree local field effects (RPA)
   LNABLA  =     F    use nabla operator in PAW spheres
   LVEL    =     F    velocity operator in full k-point grid
   LINTERFAST=   F  fast interpolation
   KINTER  =     0    interpolate to denser k-point grid
   CSHIFT  =0.1000    complex shift for real part using Kramers Kronig
   OMEGAMAX=  -1.0    maximum frequency
   DEG_THRESHOLD= 0.2000000E-02 threshold for treating states as degnerate
   RTIME   =   -0.100 relaxation time in fs
  (WPLASMAI=    0.000 imaginary part of plasma frequency in eV, 0.658/RTIME)
   DFIELD  = 0.0000000 0.0000000 0.0000000 field for delta impulse in time
 
 Orbital magnetization related:
   ORBITALMAG=     F  switch on orbital magnetization
   LCHIMAG   =     F  perturbation theory with respect to B field
   DQ        =  0.001000  dq finite difference perturbation B field
   LLRAUG    =     F  two centre corrections for induced B field



--------------------------------------------------------------------------------------------------------


 Static calculation
 charge density and potential will be updated during run
 non-spin polarized calculation
 Variant of blocked Davidson
 Davidson routine will perform the subspace rotation
 perform sub-space diagonalisation
    after iterative eigenvector-optimisation
 modified Broyden-mixing scheme, WC =      100.0
 initial mixing is a Kerker type mixing with AMIX =  0.4000 and BMIX =      1.0000
 Hartree-type preconditioning will be used
 using additional bands           35
 reciprocal scheme for non local part
 use partial core corrections
 calculate Harris-corrections to forces 
   (improved forces if not selfconsistent)
 use gradient corrections 
 use of overlap-Matrix (Vanderbilt PP)
 Fermi weights with tetrahedron method with Bloechl corrections


--------------------------------------------------------------------------------------------------------


  energy-cutoff  :      250.00
  volume of cell :     2061.76
      direct lattice vectors                 reciprocal lattice vectors
    12.727056206  0.000930939  0.000837565     0.078572766 -0.000007664 -0.000007124
     0.001241737 12.728965028  0.000951781    -0.000005746  0.078560984 -0.000005282
     0.001153934  0.000855733 12.726763253    -0.000005171 -0.000005875  0.078574575

  length of vectors
    12.727056268 12.728965124 12.726763334     0.078572767  0.078560984  0.078574575


 
 old parameters found on file WAVECAR:
  energy-cutoff  :      250.00
  volume of cell :     2061.76
      direct lattice vectors                 reciprocal lattice vectors
    12.727056206  0.000930939  0.000837565     0.078572766 -0.000007664 -0.000007124
     0.001241737 12.728965028  0.000951781    -0.000005746  0.078560984 -0.000005282
     0.001153934  0.000855733 12.726763253    -0.000005171 -0.000005875  0.078574575

  length of vectors

 
 k-points in units of 2pi/SCALE and weight: agbii                                   
   0.00000000  0.00000000  0.00000000       0.016
   0.01964319 -0.00000192 -0.00000178       0.031
   0.00000129  0.00000147 -0.01964364       0.031
   0.03928638 -0.00000383 -0.00000356       0.016
  -0.00000259 -0.00000294  0.03928729       0.016
  -0.00000144  0.01964025 -0.00000132       0.031
   0.01964176  0.01963833 -0.00000310       0.031
   0.00000273 -0.01963878 -0.01964232       0.031
   0.03928495  0.01963641 -0.00000488       0.031
  -0.00000115 -0.01964318  0.03928861       0.031
  -0.01964463  0.01964216  0.00000046       0.031
   0.00000014 -0.01964171  0.01964496       0.031
  -0.00000287  0.03928049 -0.00000264       0.016
   0.01964032  0.03927858 -0.00000442       0.031
  -0.00000158  0.03928196 -0.01964628       0.031
   0.03928351  0.03927666 -0.00000620       0.016
  -0.00000546  0.03927755  0.03928465       0.016
   0.01964190 -0.00000338  0.01964186       0.031
   0.03928509 -0.00000530  0.01964008       0.031
  -0.01964578 -0.00000102  0.03928907       0.031
  -0.01964448  0.00000045  0.01964542       0.031
   0.01964046  0.01963686  0.01964054       0.031
   0.03928365  0.01963494  0.01963876       0.031
  -0.01964434 -0.01964127  0.03929039       0.031
  -0.01964592  0.01964069  0.01964410       0.031
  -0.01964305 -0.01963980  0.01964675       0.031
   0.01963903  0.03927711  0.01963922       0.031
   0.03928222  0.03927519  0.01963744       0.031
  -0.01964865  0.03927947  0.03928643       0.031
  -0.01964736  0.03928094  0.01964278       0.031
   0.01964334 -0.01964363  0.01964318       0.031
   0.03928653 -0.01964555  0.01964140       0.031
  -0.01964721  0.01963922  0.03928775       0.031
   0.03928380 -0.00000677  0.03928373       0.016
   0.03928236  0.01963348  0.03928241       0.031
   0.03928092  0.03927372  0.03928108       0.016
 
 k-points in reciprocal lattice and weights: agbii                                   
   0.00000000  0.00000000  0.00000000       0.016
   0.25000000 -0.00000000  0.00000000       0.031
  -0.00000000  0.00000000 -0.25000000       0.031
   0.50000000 -0.00000000  0.00000000       0.016
   0.00000000  0.00000000  0.50000000       0.016
   0.00000000  0.25000000 -0.00000000       0.031
   0.25000000  0.25000000 -0.00000000       0.031
   0.00000000 -0.25000000 -0.25000000       0.031
   0.50000000  0.25000000 -0.00000000       0.031
  -0.00000000 -0.25000000  0.50000000       0.031
  -0.25000000  0.25000000 -0.00000000       0.031
   0.00000000 -0.25000000  0.25000000       0.031
   0.00000000  0.50000000  0.00000000       0.016
   0.25000000  0.50000000  0.00000000       0.031
   0.00000000  0.50000000 -0.25000000       0.031
   0.50000000  0.50000000  0.00000000       0.016
  -0.00000000  0.50000000  0.50000000       0.016
   0.25000000 -0.00000000  0.25000000       0.031
   0.50000000 -0.00000000  0.25000000       0.031
  -0.25000000  0.00000000  0.50000000       0.031
  -0.25000000  0.00000000  0.25000000       0.031
   0.25000000  0.25000000  0.25000000       0.031
   0.50000000  0.25000000  0.25000000       0.031
  -0.25000000 -0.25000000  0.50000000       0.031
  -0.25000000  0.25000000  0.25000000       0.031
  -0.25000000 -0.25000000  0.25000000       0.031
   0.25000000  0.50000000  0.25000000       0.031
   0.50000000  0.50000000  0.25000000       0.031
  -0.25000000  0.50000000  0.50000000       0.031
  -0.25000000  0.50000000  0.25000000       0.031
   0.25000000 -0.25000000  0.25000000       0.031
   0.50000000 -0.25000000  0.25000000       0.031
  -0.25000000  0.25000000  0.50000000       0.031
   0.50000000 -0.00000000  0.50000000       0.016
   0.50000000  0.25000000  0.50000000       0.031
   0.50000000  0.50000000  0.50000000       0.016
 
 position of ions in fractional coordinates (direct lattice) 
   0.00015234  0.02441336  0.97583141
   0.22520978  0.25479835  0.98736545
   0.77507001  0.01110907  0.74530666
   0.72563150  0.49392025  0.26004512
   0.50009042  0.72406910  0.27606648
   0.25427170  0.49853287  0.74655336
   0.75333798  0.25280965  0.50265535
   0.27476730  0.74065613  0.50586560
   0.49625923  0.49789870  0.00204159
   0.74977005  0.75185072  0.00259871
   0.99699488  0.25115650  0.24977668
   0.99996257  0.50052474  0.50034608
   0.00347915  0.75032256  0.74937459
   0.25062870  0.99818112  0.24851400
   0.50423570  0.99857507  0.50201714
   0.50009894  0.25001082  0.74964767
   0.23034573  0.01112488  0.00795853
   0.25284688  0.98562962  0.49830425
   0.25847198  0.49263609  0.99030288
   0.24422863  0.51174221  0.50917576
   0.77030627  0.99219969  0.99072593
   0.74194380  0.00997133  0.50684595
   0.74743193  0.50190736  0.01426943
   0.75577964  0.49078738  0.48909466
   0.99224171  0.25527431  0.00968163
   0.00679159  0.25549676  0.50127018
   0.99624947  0.74009716  0.99583902
   0.99336371  0.74660218  0.50381490
   0.50658441  0.25274307  0.99660191
   0.49327785  0.24970312  0.50554983
   0.50381847  0.74456474  0.98991857
   0.50852195  0.75845018  0.50640801
   0.00429454  0.00449958  0.25998553
   0.00834439  0.99071331  0.74521942
   0.00669702  0.49645439  0.25377016
   0.99263869  0.49956942  0.74476834
   0.49666676  0.01082503  0.25563453
   0.49328053  0.00365171  0.74749409
   0.49183666  0.49363964  0.24190181
   0.50689388  0.49474586  0.75028946
   0.24713632  0.24772140  0.24021259
   0.25584695  0.26147043  0.75840912
   0.27157171  0.75784361  0.25779018
   0.24179394  0.73798021  0.74570090
   0.75856169  0.25472079  0.26218573
   0.74427799  0.24036663  0.73932234
   0.72894475  0.74177653  0.24278083
   0.75300342  0.76174289  0.75273950
 
 position of ions in cartesian coordinates  (Angst):
   0.00309518  0.31159204 12.41919869
   2.86771331  3.24437383 12.56639751
   9.86523345  0.14276628  9.48600116
   9.23606629  6.28799165  3.31061059
   6.36589659  9.21735207  3.51454068
   3.23761076  6.34668309  9.50189538
   9.58866883  3.21913668  6.39804726
   3.49848234  9.42847465  6.43896685
   6.31653968  6.33819886  0.02687240
   9.54330223  9.57098172  0.03441671
  12.68941000  3.19810418  3.17992272
  12.72777868  6.37252100  6.36910002
   0.04607582  9.55147414  9.53783011
   3.19129176 12.70625861  3.16393881
   6.41925532 12.71172614  6.39042609
   6.36596282  3.18348603  9.54124527
   2.93164608  0.14182949  0.10148984
   3.21979530 12.54670682  6.34295015
   3.29134191  6.27183556 12.60403573
   3.10953450  6.51461173  6.48085091
   9.80610642 12.63124006 12.61032394
   9.44335767  0.12804920  6.45113929
   9.51324794  6.38946929  0.18270736
   9.62002379  6.24833745  6.22569210
  12.62864413  3.25030979  0.12428983
   0.08733264  3.25264465  6.37979571
  12.68139119  9.42245051 12.67534628
  12.64410420  9.50482899  6.41347559
   6.44879213  3.21848213 12.68418137
   6.27886831  3.17935412  6.43466388
   6.41419284  9.47885473 12.59958997
   6.47351356  9.65519257  6.44608265
   0.05496242  0.05750153  3.30878222
   0.10828970 12.61140054  9.48518105
   0.08614270  6.31957402  3.23015089
  12.63484817  6.36056310  9.47979719
   6.32141422  0.13847259  3.25382645
   6.27887606  0.04758142  9.51359691
   6.26052494  6.28418657  3.07950885
   6.45274702  6.29871673  9.54965180
   3.14590263  3.15367268  3.05757156
   3.25737836  3.32913514  9.65255653
   3.45754694  9.64703821  3.28178332
   3.07910197  9.39458747  9.49126366
   9.65487615  3.24326261  3.33765347
   9.47361947  3.06094395  9.41003249
   9.27852205  9.44293391  3.09113063
   9.58533139  9.69754372  9.58129305
 


--------------------------------------------------------------------------------------------------------


 k-point   1 :   0.0000 0.0000 0.0000  plane waves:   18613
 k-point   2 :   0.2500-0.0000 0.0000  plane waves:   18533
 k-point   3 :  -0.0000 0.0000-0.2500  plane waves:   18533
 k-point   4 :   0.5000-0.0000 0.0000  plane waves:   18500
 k-point   5 :   0.0000 0.0000 0.5000  plane waves:   18498
 k-point   6 :   0.0000 0.2500-0.0000  plane waves:   18533
 k-point   7 :   0.2500 0.2500-0.0000  plane waves:   18509
 k-point   8 :   0.0000-0.2500-0.2500  plane waves:   18509
 k-point   9 :   0.5000 0.2500-0.0000  plane waves:   18515
 k-point  10 :  -0.0000-0.2500 0.5000  plane waves:   18514
 k-point  11 :  -0.2500 0.2500-0.0000  plane waves:   18509
 k-point  12 :   0.0000-0.2500 0.2500  plane waves:   18509
 k-point  13 :   0.0000 0.5000 0.0000  plane waves:   18510
 k-point  14 :   0.2500 0.5000 0.0000  plane waves:   18508
 k-point  15 :   0.0000 0.5000-0.2500  plane waves:   18507
 k-point  16 :   0.5000 0.5000 0.0000  plane waves:   18528
 k-point  17 :  -0.0000 0.5000 0.5000  plane waves:   18528
 k-point  18 :   0.2500-0.0000 0.2500  plane waves:   18509
 k-point  19 :   0.5000-0.0000 0.2500  plane waves:   18510
 k-point  20 :  -0.2500 0.0000 0.5000  plane waves:   18510
 k-point  21 :  -0.2500 0.0000 0.2500  plane waves:   18509
 k-point  22 :   0.2500 0.2500 0.2500  plane waves:   18528
 k-point  23 :   0.5000 0.2500 0.2500  plane waves:   18478
 k-point  24 :  -0.2500-0.2500 0.5000  plane waves:   18478
 k-point  25 :  -0.2500 0.2500 0.2500  plane waves:   18536
 k-point  26 :  -0.2500-0.2500 0.2500  plane waves:   18536
 k-point  27 :   0.2500 0.5000 0.2500  plane waves:   18478
 k-point  28 :   0.5000 0.5000 0.2500  plane waves:   18500
 k-point  29 :  -0.2500 0.5000 0.5000  plane waves:   18500
 k-point  30 :  -0.2500 0.5000 0.2500  plane waves:   18478
 k-point  31 :   0.2500-0.2500 0.2500  plane waves:   18534
 k-point  32 :   0.5000-0.2500 0.2500  plane waves:   18478
 k-point  33 :  -0.2500 0.2500 0.5000  plane waves:   18478
 k-point  34 :   0.5000-0.0000 0.5000  plane waves:   18528
 k-point  35 :   0.5000 0.2500 0.5000  plane waves:   18500
 k-point  36 :   0.5000 0.5000 0.5000  plane waves:   18504

 maximum and minimum number of plane-waves per node :     18613    18478

 maximum number of plane-waves:     18613
 maximum index in each direction: 
   IXMAX=   16   IYMAX=   16   IZMAX=   16
   IXMIN=  -16   IYMIN=  -16   IZMIN=  -16


 serial   3D FFT for wavefunctions
 parallel 3D FFT for charge:
    minimum data exchange during FFTs selected (reduces bandwidth)


 total amount of memory used by VASP MPI-rank0  2782079. kBytes
=======================================================================

   base      :      30000. kBytes
   nonl-proj :     303764. kBytes
   fftplans  :      34720. kBytes
   grid      :      70000. kBytes
   one-center:        746. kBytes
   wavefun   :    2342849. kBytes
 
     INWAV:  cpu time    4.5295: real time    6.5617
 Broyden mixing: mesh for mixing (old mesh)
   NGX = 33   NGY = 33   NGZ = 33
  (NGX  =100   NGY  =100   NGZ  =100)
  gives a total of  35937 points

 initial charge density was supplied:
 number of electron     352.0000648 magnetization 
 keeping initial charge density in first step


--------------------------------------------------------------------------------------------------------


 Maximum index for augmentation-charges         5606 (set IRDMAX)


--------------------------------------------------------------------------------------------------------


 First call to EWALD:  gamma=   0.139
 Maximum number of real-space cells 3x 3x 3
 Maximum number of reciprocal cells 3x 3x 3

    FEWALD:  cpu time    0.0029: real time    0.0029


--------------------------------------- Iteration      1(   1)  ---------------------------------------


    POTLOK:  cpu time    0.5802: real time    0.5945
    SETDIJ:  cpu time    0.0277: real time    0.0277
     EDDAV:  cpu time   59.8505: real time   59.8515
 BZINTS: Fermi energy:    2.049417;  352.000000 electrons
         Band energy:-0.759251E+03;  BLOECHL correction:   -0.000000
       DOS:  cpu time    0.0629: real time    0.0629
    CHARGE:  cpu time    1.2275: real time    1.2275
    MIXING:  cpu time    0.0263: real time    0.0263
    --------------------------------------------
      LOOP:  cpu time   61.7751: real time   61.7904

 eigenvalue-minimisations  : 10736
 total energy-change (2. order) :-0.1199644E+03  (-0.3107367E-06)
 number of electron     352.0000648 magnetization 
 augmentation part      -23.1208584 magnetization 

 Broyden mixing:
  rms(total) = 0.68922E-03    rms(broyden)= 0.68919E-03
  rms(prec ) = 0.80388E-03
  weight for this iteration     100.00

 Free energy of the ion-electron system (eV)
  ---------------------------------------------------
  alpha Z        PSCENC =       225.87370853
  Ewald energy   TEWEN  =    -13870.65685266
  -Hartree energ DENC   =     -6077.77758902
  -exchange      EXHF   =         0.00000000
  -V(xc)+E(xc)   XCENC  =     -1392.39215170
  PAW double counting   =     22635.55970582   -20493.04414247
  entropy T*S    EENTRO =         0.00000000
  eigenvalues    EBANDS =      -759.25088380
  atomic energy  EATOM  =     19611.72375700
  Solvation  Ediel_sol  =         0.00000000
  ---------------------------------------------------
  free energy    TOTEN  =      -119.96444830 eV

  energy without entropy =     -119.96444830  energy(sigma->0) =     -119.96444830


--------------------------------------------------------------------------------------------------------




--------------------------------------- Iteration      1(   2)  ---------------------------------------


    POTLOK:  cpu time    0.5592: real time    0.5596
    SETDIJ:  cpu time    0.0602: real time    0.0602
     EDDAV:  cpu time   50.6299: real time   50.6297
 BZINTS: Fermi energy:    2.049531;  352.000000 electrons
         Band energy:-0.759250E+03;  BLOECHL correction:    0.000000
       DOS:  cpu time    0.0552: real time    0.0551
    --------------------------------------------
      LOOP:  cpu time   51.3044: real time   51.3046

 eigenvalue-minimisations  :  8216
 total energy-change (2. order) : 0.1162116E-06  (-0.1291949E-06)
 number of electron     352.0000648 magnetization 
 augmentation part      -23.1208584 magnetization 

 Free energy of the ion-electron system (eV)
  ---------------------------------------------------
  alpha Z        PSCENC =       225.87370853
  Ewald energy   TEWEN  =    -13870.65685266
  -Hartree energ DENC   =     -6077.77863619
  -exchange      EXHF   =         0.00000000
  -V(xc)+E(xc)   XCENC  =     -1392.39167690
  PAW double counting   =     22635.12825816   -20492.61344827
  entropy T*S    EENTRO =         0.00000000
  eigenvalues    EBANDS =      -759.24955786
  atomic energy  EATOM  =     19611.72375700
  Solvation  Ediel_sol  =         0.00000000
  ---------------------------------------------------
  free energy    TOTEN  =      -119.96444818 eV

  energy without entropy =     -119.96444818  energy(sigma->0) =     -119.96444818


--------------------------------------------------------------------------------------------------------




 average (electrostatic) potential at core
  the test charge radii are     1.1249  1.4024  1.1875
  (the norm of the test charge is              1.0000)
       1 -75.1909       2 -75.0723       3 -75.0701       4 -75.0621       5 -75.1922
       6 -75.0064       7 -75.0044       8 -75.0636       9 -65.5377      10 -65.4798
      11 -65.5319      12 -65.5064      13 -65.5329      14 -65.4785      15 -65.5365
      16 -65.5103      17 -93.1026      18 -93.2003      19 -93.0836      20 -93.0032
      21 -93.0950      22 -93.0873      23 -93.1962      24 -92.9978      25 -93.2379
      26 -93.3263      27 -93.3268      28 -93.3415      29 -93.3344      30 -93.3149
      31 -93.3216      32 -93.2317      33 -93.3243      34 -93.2289      35 -93.3341
      36 -93.3059      37 -93.3239      38 -93.3409      39 -93.2399      40 -93.3343
      41 -93.1694      42 -93.0108      43 -93.0754      44 -93.0834      45 -93.0738
      46 -93.0154      47 -93.0814      48 -93.1801
 
 
 
 E-fermi :   2.0495     XC(G=0):  -7.7993     alpha+bet : -7.7633


 k-point     1 :       0.0000    0.0000    0.0000
  band No.  band energies     occupation 
      1     -10.8466      2.00000
      2     -10.7177      2.00000
      3     -10.6719      2.00000
      4     -10.5374      2.00000
      5     -10.4834      2.00000
      6     -10.2582      2.00000
      7     -10.2258      2.00000
      8     -10.0459      2.00000
      9      -9.8927      2.00000
     10      -9.8847      2.00000
     11      -9.8710      2.00000
     12      -9.8534      2.00000
     13      -9.8447      2.00000
     14      -9.8100      2.00000
     15      -9.8078      2.00000
     16      -9.7438      2.00000
     17      -9.7329      2.00000
     18      -9.7176      2.00000
     19      -9.7084      2.00000
     20      -9.7023      2.00000
     21      -9.6859      2.00000
     22      -9.6629      2.00000
     23      -9.6544      2.00000
     24      -9.6280      2.00000
     25      -9.6158      2.00000
     26      -9.6084      2.00000
     27      -9.5895      2.00000
     28      -9.5655      2.00000
     29      -9.5557      2.00000
     30      -9.5513      2.00000
     31      -9.5434      2.00000
     32      -9.5118      2.00000
     33      -8.2260      2.00000
     34      -8.1262      2.00000
     35      -8.1157      2.00000
     36      -7.8854      2.00000
     37      -7.8590      2.00000
     38      -7.6490      2.00000
     39      -7.6346      2.00000
     40      -7.6329      2.00000
     41      -1.8234      2.00000
     42      -1.7636      2.00000
     43      -1.7198      2.00000
     44      -1.7054      2.00000
     45      -1.6573      2.00000
     46      -1.5896      2.00000
     47      -1.5328      2.00000
     48      -1.4794      2.00000
     49      -1.4720      2.00000
     50      -1.4401      2.00000
     51      -1.4359      2.00000
     52      -1.3958      2.00000
     53      -1.3588      2.00000
     54      -1.3288      2.00000
     55      -1.3222      2.00000
     56      -1.2786      2.00000
     57      -1.2363      2.00000
     58      -1.2258      2.00000
     59      -1.1581      2.00000
     60      -1.1156      2.00000
     61      -1.1010      2.00000
     62      -1.0676      2.00000
     63      -1.0249      2.00000
     64      -1.0208      2.00000
     65      -1.0185      2.00000
     66      -1.0010      2.00000
     67      -0.9882      2.00000
     68      -0.9853      2.00000
     69      -0.9638      2.00000
     70      -0.9242      2.00000
     71      -0.9207      2.00000
     72      -0.9185      2.00000
     73      -0.8875      2.00000
     74      -0.8542      2.00000
     75      -0.8484      2.00000
     76      -0.8205      2.00000
     77      -0.8151      2.00000
     78      -0.8092      2.00000
     79      -0.7836      2.00000
     80      -0.7352      2.00000
     81      -0.7043      2.00000
     82      -0.7009      2.00000
     83      -0.6651      2.00000
     84      -0.6435      2.00000
     85      -0.6355      2.00000
     86      -0.6215      2.00000
     87      -0.5807      2.00000
     88      -0.5537      2.00000
     89      -0.5438      2.00000
     90      -0.5105      2.00000
     91      -0.4906      2.00000
     92      -0.4733      2.00000
     93      -0.4667      2.00000
     94      -0.4187      2.00000
     95      -0.4043      2.00000
     96      -0.3776      2.00000
     97      -0.3610      2.00000
     98      -0.3522      2.00000
     99      -0.3319      2.00000
    100      -0.3234      2.00000
    101      -0.2895      2.00000
    102      -0.2675      2.00000
    103      -0.2614      2.00000
    104      -0.2292      2.00000
    105      -0.2147      2.00000
    106      -0.2053      2.00000
    107      -0.1769      2.00000
    108      -0.1597      2.00000
    109      -0.1343      2.00000
    110      -0.1223      2.00000
    111      -0.0660      2.00000
    112      -0.0528      2.00000
    113       0.0746      2.00000
    114       0.1231      2.00000
    115       0.1624      2.00000
    116       0.1744      2.00000
    117       0.1809      2.00000
    118       0.2101      2.00000
    119       0.2334      2.00000
    120       0.2399      2.00000
    121       0.2521      2.00000
    122       0.2860      2.00000
    123       0.3505      2.00000
    124       0.3935      2.00000
    125       0.3959      2.00000
    126       0.4128      2.00000
    127       0.4772      2.00000
    128       0.5145      2.00000
    129       0.5237      2.00000
    130       0.5239      2.00000
    131       0.5398      2.00000
    132       0.5469      2.00000
    133       0.5818      2.00000
    134       0.6360      2.00000
    135       0.6890      2.00000
    136       0.7040      2.00000
    137       0.7082      2.00000
    138       0.7131      2.00000
    139       0.7240      2.00000
    140       0.7747      2.00000
    141       0.7838      2.00000
    142       0.7884      2.00000
    143       0.8179      2.00000
    144       0.8340      2.00000
    145       0.8443      2.00000
    146       0.8870      2.00000
    147       0.9351      2.00000
    148       0.9585      2.00000
    149       0.9863      2.00000
    150       1.0243      2.00000
    151       1.0604      2.00000
    152       1.0883      2.00000
    153       1.0986      2.00000
    154       1.1457      2.00000
    155       1.1582      2.00000
    156       1.1705      2.00000
    157       1.1910      2.00000
    158       1.1993      2.00000
    159       1.2364      2.00000
    160       1.3027      2.00000
    161       1.3541      2.00000
    162       1.3960      2.00000
    163       1.4518      2.00000
    164       1.4806      2.00000
    165       1.5280      2.00000
    166       1.5407      2.00000
    167       1.5678      2.00000
    168       1.5943      2.00000
    169       1.7528      2.00000
    170       1.7578      2.00000
    171       1.8684      2.00000
    172       1.8842      2.00000
    173       1.9939      2.00000
    174       2.0050      2.00000
    175       2.0199      2.00000
    176       2.0495      2.00000
    177       3.8321      0.00000
    178       3.9958      0.00000
    179       4.0008      0.00000
    180       4.1167      0.00000
    181       4.1546      0.00000
    182       4.3374      0.00000
    183       4.3385      0.00000
    184       4.3870      0.00000
    185       4.4165      0.00000
    186       4.4331      0.00000
    187       4.5128      0.00000
    188       4.5241      0.00000
    189       4.5511      0.00000
    190       4.5595      0.00000
    191       4.5945      0.00000
    192       4.6014      0.00000
    193       4.6384      0.00000
    194       4.6963      0.00000
    195       4.7265      0.00000
    196       4.7296      0.00000
    197       4.7930      0.00000
    198       4.8216      0.00000
    199       4.8293      0.00000
    200       4.9471      0.00000
    201       5.0660      0.00000
    202       5.2629      0.00000
    203       5.5735      0.00000
    204       5.7175      0.00000
    205       5.9050      0.00000
    206       5.9250      0.00000
    207       5.9407      0.00000
    208       5.9773      0.00000
    209       7.1528      0.00000
    210       7.2577      0.00000
    211       7.2681      0.00000

 k-point     2 :       0.2500   -0.0000    0.0000
  band No.  band energies     occupation 
      1     -10.8324      2.00000
      2     -10.7476      2.00000
      3     -10.6477      2.00000
      4     -10.5670      2.00000
      5     -10.4480      2.00000
      6     -10.3202      2.00000
      7     -10.1640      2.00000
      8     -10.0619      2.00000
      9      -9.8940      2.00000
     10      -9.8863      2.00000
     11      -9.8639      2.00000
     12      -9.8551      2.00000
     13      -9.8481      2.00000
     14      -9.8269      2.00000
     15      -9.7875      2.00000
     16      -9.7383      2.00000
     17      -9.7369      2.00000
     18      -9.7224      2.00000
     19      -9.7019      2.00000
     20      -9.6949      2.00000
     21      -9.6859      2.00000
     22      -9.6782      2.00000
     23      -9.6411      2.00000
     24      -9.6293      2.00000
     25      -9.6234      2.00000
     26      -9.6094      2.00000
     27      -9.5818      2.00000
     28      -9.5611      2.00000
     29      -9.5557      2.00000
     30      -9.5525      2.00000
     31      -9.5454      2.00000
     32      -9.5186      2.00000
     33      -8.2199      2.00000
     34      -8.1671      2.00000
     35      -8.0673      2.00000
     36      -7.9429      2.00000
     37      -7.8038      2.00000
     38      -7.6796      2.00000
     39      -7.6369      2.00000
     40      -7.6124      2.00000
     41      -1.8081      2.00000
     42      -1.7500      2.00000
     43      -1.7339      2.00000
     44      -1.6847      2.00000
     45      -1.6791      2.00000
     46      -1.5948      2.00000
     47      -1.5442      2.00000
     48      -1.5012      2.00000
     49      -1.4620      2.00000
     50      -1.4539      2.00000
     51      -1.4384      2.00000
     52      -1.4003      2.00000
     53      -1.3409      2.00000
     54      -1.3194      2.00000
     55      -1.2885      2.00000
     56      -1.2786      2.00000
     57      -1.2717      2.00000
     58      -1.2036      2.00000
     59      -1.1544      2.00000
     60      -1.1445      2.00000
     61      -1.1018      2.00000
     62      -1.0941      2.00000
     63      -1.0842      2.00000
     64      -1.0334      2.00000
     65      -1.0280      2.00000
     66      -1.0048      2.00000
     67      -0.9933      2.00000
     68      -0.9533      2.00000
     69      -0.9474      2.00000
     70      -0.9287      2.00000
     71      -0.9124      2.00000
     72      -0.9092      2.00000
     73      -0.8932      2.00000
     74      -0.8606      2.00000
     75      -0.8324      2.00000
     76      -0.8187      2.00000
     77      -0.8047      2.00000
     78      -0.7830      2.00000
     79      -0.7606      2.00000
     80      -0.7488      2.00000
     81      -0.7162      2.00000
     82      -0.6763      2.00000
     83      -0.6553      2.00000
     84      -0.6355      2.00000
     85      -0.6333      2.00000
     86      -0.6110      2.00000
     87      -0.5888      2.00000
     88      -0.5550      2.00000
     89      -0.5320      2.00000
     90      -0.4897      2.00000
     91      -0.4867      2.00000
     92      -0.4748      2.00000
     93      -0.4525      2.00000
     94      -0.4159      2.00000
     95      -0.3919      2.00000
     96      -0.3811      2.00000
     97      -0.3734      2.00000
     98      -0.3480      2.00000
     99      -0.3274      2.00000
    100      -0.3236      2.00000
    101      -0.2912      2.00000
    102      -0.2792      2.00000
    103      -0.2752      2.00000
    104      -0.2290      2.00000
    105      -0.2248      2.00000
    106      -0.2110      2.00000
    107      -0.1889      2.00000
    108      -0.1823      2.00000
    109      -0.1569      2.00000
    110      -0.1493      2.00000
    111      -0.1162      2.00000
    112      -0.0834      2.00000
    113       0.0696      2.00000
    114       0.1418      2.00000
    115       0.1668      2.00000
    116       0.1775      2.00000
    117       0.2289      2.00000
    118       0.2433      2.00000
    119       0.2623      2.00000
    120       0.2754      2.00000
    121       0.2986      2.00000
    122       0.3443      2.00000
    123       0.3587      2.00000
    124       0.3995      2.00000
    125       0.4075      2.00000
    126       0.4146      2.00000
    127       0.4359      2.00000
    128       0.4646      2.00000
    129       0.4911      2.00000
    130       0.5144      2.00000
    131       0.5435      2.00000
    132       0.5595      2.00000
    133       0.6138      2.00000
    134       0.6468      2.00000
    135       0.6560      2.00000
    136       0.6674      2.00000
    137       0.7188      2.00000
    138       0.7264      2.00000
    139       0.7313      2.00000
    140       0.7539      2.00000
    141       0.7729      2.00000
    142       0.7895      2.00000
    143       0.8056      2.00000
    144       0.8405      2.00000
    145       0.8461      2.00000
    146       0.9063      2.00000
    147       0.9473      2.00000
    148       0.9534      2.00000
    149       0.9884      2.00000
    150       1.0174      2.00000
    151       1.0319      2.00000
    152       1.0892      2.00000
    153       1.1134      2.00000
    154       1.1461      2.00000
    155       1.1648      2.00000
    156       1.1745      2.00000
    157       1.1918      2.00000
    158       1.2194      2.00000
    159       1.2425      2.00000
    160       1.2682      2.00000
    161       1.4090      2.00000
    162       1.4431      2.00000
    163       1.4470      2.00000
    164       1.4588      2.00000
    165       1.5385      2.00000
    166       1.5647      2.00000
    167       1.5943      2.00000
    168       1.6036      2.00000
    169       1.7304      2.00000
    170       1.7408      2.00000
    171       1.8014      2.00000
    172       1.8105      2.00000
    173       1.9794      2.00000
    174       1.9956      2.00000
    175       2.0128      2.00000
    176       2.0392      2.00000
    177       3.8614      0.00000
    178       3.9611      0.00000
    179       4.0611      0.00000
    180       4.1186      0.00000
    181       4.1915      0.00000
    182       4.3091      0.00000
    183       4.3611      0.00000
    184       4.4059      0.00000
    185       4.4152      0.00000
    186       4.4457      0.00000
    187       4.5026      0.00000
    188       4.5061      0.00000
    189       4.5131      0.00000
    190       4.5613      0.00000
    191       4.5665      0.00000
    192       4.6309      0.00000
    193       4.6739      0.00000
    194       4.6949      0.00000
    195       4.7289      0.00000
    196       4.7452      0.00000
    197       4.7505      0.00000
    198       4.7845      0.00000
    199       4.8234      0.00000
    200       4.9158      0.00000
    201       5.1798      0.00000
    202       5.3438      0.00000
    203       5.6119      0.00000
    204       5.7041      0.00000
    205       5.8191      0.00000
    206       5.8740      0.00000
    207       5.9074      0.00000
    208       5.9249      0.00000
    209       7.1864      0.00000
    210       7.3648      0.00000
    211       7.3786      0.00000

 k-point     3 :      -0.0000    0.0000   -0.2500
  band No.  band energies     occupation 
      1     -10.8318      2.00000
      2     -10.7230      2.00000
      3     -10.6926      2.00000
      4     -10.5346      2.00000
      5     -10.4801      2.00000
      6     -10.2574      2.00000
      7     -10.2142      2.00000
      8     -10.0564      2.00000
      9      -9.8983      2.00000
     10      -9.8949      2.00000
     11      -9.8726      2.00000
     12      -9.8548      2.00000
     13      -9.8479      2.00000
     14      -9.7997      2.00000
     15      -9.7893      2.00000
     16      -9.7473      2.00000
     17      -9.7314      2.00000
     18      -9.7197      2.00000
     19      -9.6973      2.00000
     20      -9.6956      2.00000
     21      -9.6941      2.00000
     22      -9.6622      2.00000
     23      -9.6500      2.00000
     24      -9.6339      2.00000
     25      -9.6132      2.00000
     26      -9.6108      2.00000
     27      -9.5843      2.00000
     28      -9.5696      2.00000
     29      -9.5590      2.00000
     30      -9.5524      2.00000
     31      -9.5416      2.00000
     32      -9.5176      2.00000
     33      -8.2312      2.00000
     34      -8.1228      2.00000
     35      -8.1156      2.00000
     36      -7.8837      2.00000
     37      -7.8600      2.00000
     38      -7.6815      2.00000
     39      -7.6318      2.00000
     40      -7.6035      2.00000
     41      -1.8015      2.00000
     42      -1.7486      2.00000
     43      -1.7191      2.00000
     44      -1.6914      2.00000
     45      -1.6509      2.00000
     46      -1.6106      2.00000
     47      -1.5631      2.00000
     48      -1.5468      2.00000
     49      -1.4951      2.00000
     50      -1.4515      2.00000
     51      -1.3969      2.00000
     52      -1.3830      2.00000
     53      -1.3530      2.00000
     54      -1.3248      2.00000
     55      -1.3039      2.00000
     56      -1.2741      2.00000
     57      -1.2268      2.00000
     58      -1.2020      2.00000
     59      -1.1800      2.00000
     60      -1.1296      2.00000
     61      -1.1177      2.00000
     62      -1.0835      2.00000
     63      -1.0501      2.00000
     64      -1.0368      2.00000
     65      -1.0204      2.00000
     66      -1.0015      2.00000
     67      -0.9805      2.00000
     68      -0.9682      2.00000
     69      -0.9436      2.00000
     70      -0.9374      2.00000
     71      -0.9174      2.00000
     72      -0.9028      2.00000
     73      -0.8869      2.00000
     74      -0.8735      2.00000
     75      -0.8411      2.00000
     76      -0.8209      2.00000
     77      -0.8145      2.00000
     78      -0.8078      2.00000
     79      -0.7657      2.00000
     80      -0.7554      2.00000
     81      -0.7084      2.00000
     82      -0.6804      2.00000
     83      -0.6572      2.00000
     84      -0.6528      2.00000
     85      -0.6395      2.00000
     86      -0.5951      2.00000
     87      -0.5851      2.00000
     88      -0.5563      2.00000
     89      -0.5123      2.00000
     90      -0.5024      2.00000
     91      -0.4831      2.00000
     92      -0.4727      2.00000
     93      -0.4436      2.00000
     94      -0.4203      2.00000
     95      -0.4052      2.00000
     96      -0.3894      2.00000
     97      -0.3793      2.00000
     98      -0.3686      2.00000
     99      -0.3401      2.00000
    100      -0.3173      2.00000
    101      -0.3056      2.00000
    102      -0.2840      2.00000
    103      -0.2298      2.00000
    104      -0.2258      2.00000
    105      -0.2122      2.00000
    106      -0.1819      2.00000
    107      -0.1643      2.00000
    108      -0.1601      2.00000
    109      -0.1486      2.00000
    110      -0.1386      2.00000
    111      -0.1038      2.00000
    112      -0.0524      2.00000
    113       0.0808      2.00000
    114       0.1065      2.00000
    115       0.1285      2.00000
    116       0.1457      2.00000
    117       0.1756      2.00000
    118       0.2257      2.00000
    119       0.2469      2.00000
    120       0.2618      2.00000
    121       0.2836      2.00000
    122       0.3343      2.00000
    123       0.3465      2.00000
    124       0.3546      2.00000
    125       0.4124      2.00000
    126       0.4461      2.00000
    127       0.4678      2.00000
    128       0.5083      2.00000
    129       0.5239      2.00000
    130       0.5512      2.00000
    131       0.5657      2.00000
    132       0.5872      2.00000
    133       0.5992      2.00000
    134       0.6233      2.00000
    135       0.6502      2.00000
    136       0.6829      2.00000
    137       0.6954      2.00000
    138       0.7168      2.00000
    139       0.7529      2.00000
    140       0.7575      2.00000
    141       0.7723      2.00000
    142       0.8099      2.00000
    143       0.8151      2.00000
    144       0.8294      2.00000
    145       0.8615      2.00000
    146       0.8963      2.00000
    147       0.9688      2.00000
    148       0.9820      2.00000
    149       0.9868      2.00000
    150       1.0091      2.00000
    151       1.0172      2.00000
    152       1.0787      2.00000
    153       1.1215      2.00000
    154       1.1434      2.00000
    155       1.1516      2.00000
    156       1.1530      2.00000
    157       1.1804      2.00000
    158       1.2078      2.00000
    159       1.2382      2.00000
    160       1.2922      2.00000
    161       1.3527      2.00000
    162       1.4073      2.00000
    163       1.4636      2.00000
    164       1.4746      2.00000
    165       1.5173      2.00000
    166       1.5443      2.00000
    167       1.5938      2.00000
[...]
    143       0.8485      2.00000
    144       0.8519      2.00000
    145       0.9149      2.00000
    146       0.9245      2.00000
    147       1.0105      2.00000
    148       1.0160      2.00000
    149       1.0346      2.00000
    150       1.0404      2.00000
    151       1.0698      2.00000
    152       1.0748      2.00000
    153       1.0939      2.00000
    154       1.0966      2.00000
    155       1.1595      2.00000
    156       1.1621      2.00000
    157       1.2030      2.00000
    158       1.2053      2.00000
    159       1.2609      2.00000
    160       1.2623      2.00000
    161       1.4363      2.00000
    162       1.4427      2.00000
    163       1.5698      2.00000
    164       1.5747      2.00000
    165       1.5776      2.00000
    166       1.5834      2.00000
    167       1.6725      2.00000
    168       1.6761      2.00000
    169       1.7467      2.00000
    170       1.7522      2.00000
    171       1.8257      2.00000
    172       1.8291      2.00000
    173       1.8603      2.00000
    174       1.8655      2.00000
    175       1.9765      2.00000
    176       1.9796      2.00000
    177       3.8007      0.00000
    178       3.8042      0.00000
    179       3.9853      0.00000
    180       3.9887      0.00000
    181       4.0976      0.00000
    182       4.1012      0.00000
    183       4.2494      0.00000
    184       4.2523      0.00000
    185       4.3182      0.00000
    186       4.3217      0.00000
    187       4.4201      0.00000
    188       4.4238      0.00000
    189       4.5957      0.00000
    190       4.5982      0.00000
    191       4.6714      0.00000
    192       4.6786      0.00000
    193       4.7655      0.00000
    194       4.7691      0.00000
    195       4.8140      0.00000
    196       4.8198      0.00000
    197       4.8793      0.00000
    198       4.8804      0.00000
    199       5.0087      0.00000
    200       5.0126      0.00000
    201       5.5460      0.00000
    202       5.5481      0.00000
    203       5.5847      0.00000
    204       5.5896      0.00000
    205       5.6231      0.00000
    206       5.6463      0.00000
    207       5.7787      0.00000
    208       5.7824      0.00000
    209       7.3198      0.00000
    210       7.3229      0.00000
    211       7.4865      0.00000

 k-point    36 :       0.5000    0.5000    0.5000
  band No.  band energies     occupation 
      1     -10.7730      2.00000
      2     -10.7696      2.00000
      3     -10.6438      2.00000
      4     -10.6423      2.00000
      5     -10.3865      2.00000
      6     -10.3860      2.00000
      7     -10.1227      2.00000
      8     -10.1164      2.00000
      9      -9.9090      2.00000
     10      -9.9081      2.00000
     11      -9.8239      2.00000
     12      -9.8190      2.00000
     13      -9.7943      2.00000
     14      -9.7925      2.00000
     15      -9.7524      2.00000
     16      -9.7514      2.00000
     17      -9.7309      2.00000
     18      -9.7292      2.00000
     19      -9.7076      2.00000
     20      -9.7031      2.00000
     21      -9.6986      2.00000
     22      -9.6940      2.00000
     23      -9.6424      2.00000
     24      -9.6338      2.00000
     25      -9.6185      2.00000
     26      -9.6149      2.00000
     27      -9.5885      2.00000
     28      -9.5841      2.00000
     29      -9.5559      2.00000
     30      -9.5506      2.00000
     31      -9.5403      2.00000
     32      -9.5389      2.00000
     33      -8.2028      2.00000
     34      -8.2014      2.00000
     35      -8.0092      2.00000
     36      -8.0062      2.00000
     37      -7.7684      2.00000
     38      -7.7662      2.00000
     39      -7.5916      2.00000
     40      -7.5879      2.00000
     41      -1.7858      2.00000
     42      -1.7811      2.00000
     43      -1.6787      2.00000
     44      -1.6775      2.00000
     45      -1.6349      2.00000
     46      -1.6336      2.00000
     47      -1.5422      2.00000
     48      -1.5409      2.00000
     49      -1.4924      2.00000
     50      -1.4921      2.00000
     51      -1.4607      2.00000
     52      -1.4589      2.00000
     53      -1.3801      2.00000
     54      -1.3798      2.00000
     55      -1.2910      2.00000
     56      -1.2880      2.00000
     57      -1.2720      2.00000
     58      -1.2703      2.00000
     59      -1.1456      2.00000
     60      -1.1363      2.00000
     61      -1.0503      2.00000
     62      -1.0451      2.00000
     63      -1.0147      2.00000
     64      -1.0094      2.00000
     65      -0.9990      2.00000
     66      -0.9873      2.00000
     67      -0.9721      2.00000
     68      -0.9658      2.00000
     69      -0.9234      2.00000
     70      -0.9111      2.00000
     71      -0.8901      2.00000
     72      -0.8832      2.00000
     73      -0.8719      2.00000
     74      -0.8711      2.00000
     75      -0.8465      2.00000
     76      -0.8453      2.00000
     77      -0.8326      2.00000
     78      -0.8253      2.00000
     79      -0.7487      2.00000
     80      -0.7462      2.00000
     81      -0.6998      2.00000
     82      -0.6958      2.00000
     83      -0.6281      2.00000
     84      -0.6243      2.00000
     85      -0.5941      2.00000
     86      -0.5884      2.00000
     87      -0.5537      2.00000
     88      -0.5535      2.00000
     89      -0.5239      2.00000
     90      -0.5181      2.00000
     91      -0.4832      2.00000
     92      -0.4791      2.00000
     93      -0.4109      2.00000
     94      -0.4053      2.00000
     95      -0.3871      2.00000
     96      -0.3825      2.00000
     97      -0.3645      2.00000
     98      -0.3587      2.00000
     99      -0.3195      2.00000
    100      -0.3128      2.00000
    101      -0.3103      2.00000
    102      -0.3051      2.00000
    103      -0.2629      2.00000
    104      -0.2553      2.00000
    105      -0.2132      2.00000
    106      -0.2093      2.00000
    107      -0.1922      2.00000
    108      -0.1862      2.00000
    109      -0.1502      2.00000
    110      -0.1474      2.00000
    111      -0.0902      2.00000
    112      -0.0860      2.00000
    113       0.0321      2.00000
    114       0.0358      2.00000
    115       0.1436      2.00000
    116       0.1451      2.00000
    117       0.2279      2.00000
    118       0.2349      2.00000
    119       0.2809      2.00000
    120       0.2861      2.00000
    121       0.3640      2.00000
    122       0.3668      2.00000
    123       0.3698      2.00000
    124       0.3715      2.00000
    125       0.4182      2.00000
    126       0.4201      2.00000
    127       0.4530      2.00000
    128       0.4553      2.00000
    129       0.5079      2.00000
    130       0.5149      2.00000
    131       0.5488      2.00000
    132       0.5529      2.00000
    133       0.5668      2.00000
    134       0.5775      2.00000
    135       0.6056      2.00000
    136       0.6062      2.00000
    137       0.6639      2.00000
    138       0.6705      2.00000
    139       0.6934      2.00000
    140       0.7053      2.00000
    141       0.7347      2.00000
    142       0.7413      2.00000
    143       0.8763      2.00000
    144       0.8785      2.00000
    145       0.9018      2.00000
    146       0.9117      2.00000
    147       1.0278      2.00000
    148       1.0345      2.00000
    149       1.0479      2.00000
    150       1.0553      2.00000
    151       1.0710      2.00000
    152       1.0735      2.00000
    153       1.0862      2.00000
    154       1.0879      2.00000
    155       1.1710      2.00000
    156       1.1719      2.00000
    157       1.1985      2.00000
    158       1.2000      2.00000
    159       1.2632      2.00000
    160       1.2656      2.00000
    161       1.4680      2.00000
    162       1.4756      2.00000
    163       1.5686      2.00000
    164       1.5735      2.00000
    165       1.5786      2.00000
    166       1.5819      2.00000
    167       1.6879      2.00000
    168       1.6917      2.00000
    169       1.7681      2.00000
    170       1.7709      2.00000
    171       1.8264      2.00000
    172       1.8307      2.00000
    173       1.8601      2.00000
    174       1.8613      2.00000
    175       2.0135      2.00000
    176       2.0149      2.00000
    177       3.7030      0.00000
    178       3.7044      0.00000
    179       3.9088      0.00000
    180       3.9123      0.00000
    181       4.0389      0.00000
    182       4.0421      0.00000
    183       4.2253      0.00000
    184       4.2264      0.00000
    185       4.3095      0.00000
    186       4.3148      0.00000
    187       4.4195      0.00000
    188       4.4208      0.00000
    189       4.6093      0.00000
    190       4.6142      0.00000
    191       4.6975      0.00000
    192       4.7024      0.00000
    193       4.8127      0.00000
    194       4.8178      0.00000
    195       4.8445      0.00000
    196       4.8454      0.00000
    197       4.9462      0.00000
    198       4.9482      0.00000
    199       5.0240      0.00000
    200       5.0283      0.00000
    201       5.5301      0.00000
    202       5.5310      0.00000
    203       5.5602      0.00000
    204       5.5611      0.00000
    205       5.5913      0.00000
    206       5.6181      0.00000
    207       5.7934      0.00000
    208       5.7948      0.00000
    209       7.2393      0.00000
    210       7.2428      0.00000
    211       7.5041      0.00000


--------------------------------------------------------------------------------------------------------


 soft charge-density along one line, spin component           1
         0         1         2         3         4         5         6         7         8         9
 total charge-density along one line
 
 pseudopotential strength for first ion, spin component:           1
 -6.521   0.000  -0.000   0.003   0.001  -6.652   0.000  -0.000
  0.000  -6.528   0.002   0.000  -0.003   0.000  -6.659   0.002
 -0.000   0.002  -6.521  -0.001  -0.004  -0.000   0.002  -6.652
  0.003   0.000  -0.001  -6.521   0.001   0.003   0.000  -0.001
  0.001  -0.003  -0.004   0.001  -6.517   0.001  -0.003  -0.004
 -6.652   0.000  -0.000   0.003   0.001  -6.754   0.000  -0.000
  0.000  -6.659   0.002   0.000  -0.003   0.000  -6.760   0.002
 -0.000   0.002  -6.652  -0.001  -0.004  -0.000   0.002  -6.754
  0.003   0.000  -0.001  -6.652   0.001   0.003   0.000  -0.001
  0.001  -0.003  -0.004   0.001  -6.648   0.001  -0.003  -0.004
  0.000   0.000  -0.001   0.000   0.001   0.000   0.000  -0.001
  0.000   0.001  -0.001   0.000   0.002   0.000   0.001  -0.001
  0.000   0.006   0.004  -0.000   0.007   0.000   0.006   0.004
 -0.000  -0.006   0.008  -0.000  -0.000  -0.000  -0.005   0.008
 -0.005  -0.000  -0.000   0.005   0.000  -0.005  -0.000  -0.000
  0.000   0.007   0.005  -0.000   0.008   0.000   0.007   0.004
 -0.000  -0.007   0.009   0.000  -0.000  -0.000  -0.007   0.009
 -0.007  -0.000  -0.000   0.007   0.000  -0.007  -0.000  -0.000
 total augmentation occupancy for first ion, spin component:           1
  2.399  -0.017  -0.052  -0.018   0.169  -0.405   0.014   0.051   0.009  -0.150  -0.042   0.008   0.021  -0.003   0.074  -0.001
 -0.017   2.331   0.132  -0.015  -0.228   0.014  -0.326  -0.127   0.012   0.220  -0.201   0.033  -0.053   0.053  -0.000   0.006
 -0.052   0.132   3.785  -0.117  -0.343   0.051  -0.127  -1.655   0.102   0.342   0.208  -0.030   0.087   0.235  -0.021  -0.004
 -0.018  -0.015  -0.117   2.403   0.121   0.009   0.012   0.102  -0.409  -0.110  -0.033   0.006   0.002  -0.020  -0.076  -0.000
  0.169  -0.228  -0.343   0.121   4.172  -0.150   0.220   0.342  -0.110  -2.040  -0.370   0.054   0.219  -0.036  -0.011  -0.009
 -0.405   0.014   0.051   0.009  -0.150   0.395  -0.011  -0.049  -0.001   0.134   0.037  -0.008  -0.019   0.002  -0.059   0.001
  0.014  -0.326  -0.127   0.012   0.220  -0.011   0.304   0.123  -0.010  -0.212   0.186  -0.041   0.039  -0.039   0.000  -0.003
  0.051  -0.127  -1.655   0.102   0.342  -0.049   0.123   1.520  -0.089  -0.339  -0.185   0.034  -0.080  -0.213   0.018   0.006
  0.009   0.012   0.102  -0.409  -0.110  -0.001  -0.010  -0.089   0.399   0.100   0.029  -0.007  -0.001   0.018   0.061   0.000
 -0.150   0.220   0.342  -0.110  -2.040   0.134  -0.212  -0.339   0.100   1.902   0.330  -0.061  -0.197   0.030   0.009   0.012
 -0.042  -0.201   0.208  -0.033  -0.370   0.037   0.186  -0.185   0.029   0.330   1.481  -0.313   0.046  -0.047  -0.001  -0.004
  0.008   0.033  -0.030   0.006   0.054  -0.008  -0.041   0.034  -0.007  -0.061  -0.313   0.071  -0.011   0.011   0.000   0.001
  0.021  -0.053   0.087   0.002   0.219  -0.019   0.039  -0.080  -0.001  -0.197   0.046  -0.011   0.079   0.014   0.002  -0.005
 -0.003   0.053   0.235  -0.020  -0.036   0.002  -0.039  -0.213   0.018   0.030  -0.047   0.011   0.014   0.080   0.002  -0.001
  0.074  -0.000  -0.021  -0.076  -0.011  -0.059   0.000   0.018   0.061   0.009  -0.001   0.000   0.002   0.002   0.118  -0.000
 -0.001   0.006  -0.004  -0.000  -0.009   0.001  -0.003   0.006   0.000   0.012  -0.004   0.001  -0.005  -0.001  -0.000   0.000
  0.000  -0.006  -0.010   0.001   0.001  -0.000   0.003   0.014  -0.001  -0.001   0.004  -0.001  -0.001  -0.005  -0.000   0.000
 -0.006   0.000   0.001   0.007   0.001   0.004  -0.000  -0.001  -0.004  -0.001   0.000  -0.000  -0.000  -0.000  -0.008   0.000


------------------------ aborting loop because EDIFF is reached ----------------------------------------


 


 total charge     
 
# of ion       s       p       d       tot
------------------------------------------
    1        0.252   0.157   9.313   9.722
    2        0.241   0.151   9.320   9.712
    3        0.241   0.151   9.320   9.711
    4        0.241   0.151   9.320   9.712
    5        0.254   0.159   9.311   9.725
    6        0.238   0.146   9.323   9.708
    7        0.238   0.146   9.323   9.707
    8        0.241   0.151   9.320   9.712
    9        1.833   1.401   0.138   3.373
   10        1.833   1.400   0.135   3.368
   11        1.834   1.400   0.138   3.372
   12        1.835   1.397   0.139   3.370
   13        1.834   1.400   0.138   3.372
   14        1.833   1.400   0.135   3.368
   15        1.834   1.401   0.138   3.373
   16        1.835   1.397   0.139   3.371
   17        1.514   2.743   0.015   4.272
   18        1.517   2.745   0.013   4.275
   19        1.516   2.743   0.015   4.274
   20        1.513   2.747   0.016   4.276
   21        1.514   2.743   0.015   4.272
   22        1.516   2.743   0.015   4.274
   23        1.517   2.745   0.013   4.275
   24        1.513   2.747   0.016   4.276
   25        1.514   2.742   0.017   4.273
   26        1.518   2.742   0.013   4.273
   27        1.518   2.742   0.011   4.271
   28        1.518   2.742   0.012   4.272
   29        1.518   2.742   0.011   4.272
   30        1.518   2.743   0.012   4.273
   31        1.518   2.742   0.011   4.271
   32        1.514   2.742   0.017   4.273
   33        1.518   2.742   0.011   4.271
   34        1.514   2.742   0.017   4.274
   35        1.518   2.742   0.012   4.272
   36        1.518   2.743   0.012   4.273
   37        1.518   2.742   0.011   4.271
   38        1.518   2.742   0.012   4.272
   39        1.514   2.742   0.017   4.273
   40        1.518   2.742   0.013   4.273
   41        1.518   2.746   0.012   4.275
   42        1.513   2.747   0.016   4.276
   43        1.514   2.744   0.015   4.272
   44        1.515   2.744   0.015   4.274
   45        1.515   2.744   0.015   4.274
   46        1.513   2.747   0.016   4.276
   47        1.514   2.743   0.015   4.272
   48        1.517   2.746   0.012   4.275
--------------------------------------------------
tot         65.133 100.201  76.089 241.423
 


--------------------------------------------------------------------------------------------------------



  FREE ENERGIE OF THE ION-ELECTRON SYSTEM (eV)
  ---------------------------------------------------
  free  energy   TOTEN  =      -119.96444818 eV

  energy  without entropy=     -119.96444818  energy(sigma->0) =     -119.96444818
 


--------------------------------------------------------------------------------------------------------




--------------------------------------------------------------------------------------------------------


 writing wavefunctions
     LOOP+:  cpu time  117.9254: real time  117.9909
    4ORBIT:  cpu time    0.0000: real time    0.0000
 


 total charge     
 
# of ion       s       p       d       tot
------------------------------------------
    1        0.252   0.157   9.313   9.722
    2        0.241   0.151   9.320   9.712
    3        0.241   0.151   9.320   9.711
    4        0.241   0.151   9.320   9.712
    5        0.254   0.159   9.311   9.725
    6        0.238   0.146   9.323   9.708
    7        0.238   0.146   9.323   9.707
    8        0.241   0.151   9.320   9.712
    9        1.833   1.401   0.138   3.373
   10        1.833   1.400   0.135   3.368
   11        1.834   1.400   0.138   3.372
   12        1.835   1.397   0.139   3.370
   13        1.834   1.400   0.138   3.372
   14        1.833   1.400   0.135   3.368
   15        1.834   1.401   0.138   3.373
   16        1.835   1.397   0.139   3.371
   17        1.514   2.743   0.015   4.272
   18        1.517   2.745   0.013   4.275
   19        1.516   2.743   0.015   4.274
   20        1.513   2.747   0.016   4.276
   21        1.514   2.743   0.015   4.272
   22        1.516   2.743   0.015   4.274
   23        1.517   2.745   0.013   4.275
   24        1.513   2.747   0.016   4.276
   25        1.514   2.742   0.017   4.273
   26        1.518   2.742   0.013   4.273
   27        1.518   2.742   0.011   4.271
   28        1.518   2.742   0.012   4.272
   29        1.518   2.742   0.011   4.272
   30        1.518   2.743   0.012   4.273
   31        1.518   2.742   0.011   4.271
   32        1.514   2.742   0.017   4.273
   33        1.518   2.742   0.011   4.271
   34        1.514   2.742   0.017   4.274
   35        1.518   2.742   0.012   4.272
   36        1.518   2.743   0.012   4.273
   37        1.518   2.742   0.011   4.271
   38        1.518   2.742   0.012   4.272
   39        1.514   2.742   0.017   4.273
   40        1.518   2.742   0.013   4.273
   41        1.518   2.746   0.012   4.275
   42        1.513   2.747   0.016   4.276
   43        1.514   2.744   0.015   4.272
   44        1.515   2.744   0.015   4.274
   45        1.515   2.744   0.015   4.274
   46        1.513   2.747   0.016   4.276
   47        1.514   2.743   0.015   4.272
   48        1.517   2.746   0.012   4.275
--------------------------------------------------
tot         65.133 100.201  76.089 241.423
 
 BZINTS: Fermi energy:    2.049531;  352.000000 electrons
         Band energy:-0.759250E+03;  BLOECHL correction:    0.000000

 total amount of memory used by VASP MPI-rank0  2782079. kBytes
=======================================================================

   base      :      30000. kBytes
   nonl-proj :     303764. kBytes
   fftplans  :      34720. kBytes
   grid      :      70000. kBytes
   one-center:        746. kBytes
   wavefun   :    2342849. kBytes
 
  
  
 General timing and accounting informations for this job:
 ========================================================
  
                  Total CPU time used (sec):      156.714
                            User time (sec):      152.151
                          System time (sec):        4.563
                         Elapsed time (sec):      160.757
  
                   Maximum memory used (kb):     4343732.
                   Average memory used (kb):           0.
  
                          Minor page faults:       428876
                          Major page faults:            0
                 Voluntary context switches:         2438
