 vasp.6.1.0 28Jan20 (build Jan 13 2021 21:44:47) complex                        
  
 executed on             LinuxIFC date 2021.09.12  19:33:12
 running on    9 total cores
 distrk:  each k-point on    1 cores,    9 groups
 distr:  one band on NCORE=   1 cores,    1 groups


--------------------------------------------------------------------------------------------------------


 INCAR:
 POTCAR:    PAW_PBE Ag 02Apr2005                  
 POTCAR:    PAW_PBE Bi 08Apr2002                  
 POTCAR:    PAW_PBE I 08Apr2002                   
 -----------------------------------------------------------------------------
|                                                                             |
|           W    W    AA    RRRRR   N    N  II  N    N   GGGG   !!!           |
|           W    W   A  A   R    R  NN   N  II  NN   N  G    G  !!!           |
|           W    W  A    A  R    R  N N  N  II  N N  N  G       !!!           |
|           W WW W  AAAAAA  RRRRR   N  N N  II  N  N N  G  GGG   !            |
|           WW  WW  A    A  R   R   N   NN  II  N   NN  G    G                |
|           W    W  A    A  R    R  N    N  II  N    N   GGGG   !!!           |
|                                                                             |
|     For optimal performance we recommend to set                             |
|       NCORE = 4 - approx SQRT(number of cores).                             |
|     NCORE specifies how many cores store one orbital (NPAR=cpu/NCORE).      |
|     This setting can greatly improve the performance of VASP for DFT.       |
|     The default, NCORE=1 might be grossly inefficient on modern             |
|     multi-core architectures or massively parallel machines. Do your        |
|     own testing!!!!                                                         |
|     Unfortunately you need to use the default for GW and RPA                |
|     calculations (for HF NCORE is supported but not extensively tested      |
|     yet).                                                                   |
|                                                                             |
 -----------------------------------------------------------------------------

 POTCAR:    PAW_PBE Ag 02Apr2005                  
   VRHFIN =Ag : s1 d10                                                                              
   LEXCH  = PE                                                                                      
   EATOM  =  1037.2675 eV,   76.2370 Ry                                                             
                                                                                                    
   TITEL  = PAW_PBE Ag 02Apr2005                                                                    
   LULTRA =        F    use ultrasoft PP ?                                                          
   IUNSCR =        1    unscreen: 0-lin 1-nonlin 2-no                                               
   RPACOR =    2.000    partial core radius                                                         
   POMASS =  107.868; ZVAL   =   11.000    mass and valenz                                          
   RCORE  =    2.500    outmost cutoff radius                                                       
   RWIGS  =    2.840; RWIGS  =    1.503    wigner-seitz radius (au A)                               
   ENMAX  =  249.844; ENMIN  =  187.383 eV                                                          
   ICORE  =        3    local potential                                                             
   LCOR   =        T    correct aug charges                                                         
   LPAW   =        T    paw PP                                                                      
   EAUG   =  412.496                                                                                
   DEXC   =    0.000                                                                                
   RMAX   =    2.560    core radius for proj-oper                                                   
   RAUG   =    1.300    factor for augmentation sphere                                              
   RDEP   =    2.576    radius for radial grids                                                     
   RDEPT  =    2.072    core radius for aug-charge                                                  
                                                                                                    
   Atomic configuration                                                                             
   12 entries                                                                                       
     n  l   j            E        occ.                                                              
     1  0  0.50    -25324.9161   2.0000                                                             
     2  0  0.50     -3728.5341   2.0000                                                             
     2  1  1.50     -3344.0404   6.0000                                                             
     3  0  0.50      -683.5581   2.0000                                                             
     3  1  1.50      -557.3225   6.0000                                                             
     3  2  2.50      -358.3853  10.0000                                                             
     4  0  0.50       -95.0341   2.0000                                                             
     4  1  1.50       -58.5511   6.0000                                                             
     4  2  2.50        -7.4440  10.0000                                                             
     5  0  0.50        -4.4045   1.0000                                                             
     5  1  0.50        -1.3606   0.0000                                                             
     4  3  2.50        -1.3606   0.0000                                                             
   Description                                                                                      
     l       E           TYP  RCUT    TYP  RCUT                                                     
     2     -7.4439781     23  2.400                                                                 
     2     -8.8045607     23  2.400                                                                 
     0     -4.4044681     23  2.400                                                                 
     0      1.9520038     23  2.400                                                                 
     1     -1.3605826     23  2.500                                                                 
     1     27.2116520     23  2.500                                                                 
     3     -4.0817478     23  2.400                                                                 
  local pseudopotential read in
  partial core-charges read in
  partial kinetic energy density read in
  atomic valenz-charges read in
  non local Contribution for L=           2  read in
    real space projection operators read in
  non local Contribution for L=           2  read in
    real space projection operators read in
  non local Contribution for L=           0  read in
    real space projection operators read in
  non local Contribution for L=           0  read in
    real space projection operators read in
  non local Contribution for L=           1  read in
    real space projection operators read in
  non local Contribution for L=           1  read in
    real space projection operators read in
    PAW grid and wavefunctions read in
 
   number of l-projection  operators is LMAX  =           6
   number of lm-projection operators is LMMAX =          18
 
 POTCAR:    PAW_PBE Bi 08Apr2002                  
   VRHFIN =Bi:                                                                                      
   LEXCH  = PE                                                                                      
   EATOM  =   150.8133 eV,   11.0845 Ry                                                             
                                                                                                    
   TITEL  = PAW_PBE Bi 08Apr2002                                                                    
   LULTRA =        F    use ultrasoft PP ?                                                          
   IUNSCR =        1    unscreen: 0-lin 1-nonlin 2-no                                               
   RPACOR =    2.200    partial core radius                                                         
   POMASS =  208.980; ZVAL   =    5.000    mass and valenz                                          
   RCORE  =    3.000    outmost cutoff radius                                                       
   RWIGS  =    3.090; RWIGS  =    1.635    wigner-seitz radius (au A)                               
   ENMAX  =  105.037; ENMIN  =   78.777 eV                                                          
   ICORE  =        3    local potential                                                             
   LCOR   =        T    correct aug charges                                                         
   LPAW   =        T    paw PP                                                                      
   EAUG   =  265.427                                                                                
   DEXC   =    0.000                                                                                
   RMAX   =    3.067    core radius for proj-oper                                                   
   RAUG   =    1.300    factor for augmentation sphere                                              
   RDEP   =    3.012    radius for radial grids                                                     
   RDEPT  =    2.604    core radius for aug-charge                                                  
                                                                                                    
   Atomic configuration                                                                             
   17 entries                                                                                       
     n  l   j            E        occ.                                                              
     1  0  0.50    -90639.6582   2.0000                                                             
     2  0  0.50    -16282.4667   2.0000                                                             
     2  1  1.50    -13922.8287   6.0000                                                             
     3  0  0.50     -3930.4763   2.0000                                                             
     3  1  1.50     -3256.7013   6.0000                                                             
     3  2  2.50     -2581.6169  10.0000                                                             
     4  0  0.50      -902.2614   2.0000                                                             
     4  1  1.50      -681.5915   6.0000                                                             
     4  2  2.50      -429.8249  10.0000                                                             
     4  3  3.50      -152.6004  14.0000                                                             
     5  0  0.50      -157.7156   2.0000                                                             
     5  1  1.50       -95.8054   6.0000                                                             
     5  2  2.50       -27.0806  10.0000                                                             
     6  0  0.50       -14.4732   2.0000                                                             
     6  1  1.50        -4.5702   3.0000                                                             
     6  2  2.50        -2.7212   0.0000                                                             
     5  3  2.50        -2.7212   0.0000                                                             
   Description                                                                                      
     l       E           TYP  RCUT    TYP  RCUT                                                     
     0    -14.4732299     23  3.000                                                                 
     0    -12.2452434     23  3.000                                                                 
     1     -4.5701666     23  3.000                                                                 
     1    -13.6058260     23  3.000                                                                 
     2     -2.7211652     23  3.000                                                                 
     3     -1.3605826      7  3.000                                                                 
  local pseudopotential read in
  partial core-charges read in
  partial kinetic energy density read in
  kinetic energy density of atom read in
  atomic valenz-charges read in
  non local Contribution for L=           0  read in
    real space projection operators read in
  non local Contribution for L=           0  read in
    real space projection operators read in
  non local Contribution for L=           1  read in
    real space projection operators read in
  non local Contribution for L=           1  read in
    real space projection operators read in
  non local Contribution for L=           2  read in
    real space projection operators read in
    PAW grid and wavefunctions read in
 
   number of l-projection  operators is LMAX  =           5
   number of lm-projection operators is LMMAX =          13
 
 POTCAR:    PAW_PBE I 08Apr2002                   
   VRHFIN =I : s2p5                                                                                 
   LEXCH  = PE                                                                                      
   EATOM  =   315.8678 eV,   23.2156 Ry                                                             
                                                                                                    
   TITEL  = PAW_PBE I 08Apr2002                                                                     
   LULTRA =        F    use ultrasoft PP ?                                                          
   IUNSCR =        1    unscreen: 0-lin 1-nonlin 2-no                                               
   RPACOR =    2.200    partial core radius                                                         
   POMASS =  126.904; ZVAL   =    7.000    mass and valenz                                          
   RCORE  =    2.300    outmost cutoff radius                                                       
   RWIGS  =    2.810; RWIGS  =    1.487    wigner-seitz radius (au A)                               
   ENMAX  =  175.647; ENMIN  =  131.735 eV                                                          
   ICORE  =        3    local potential                                                             
   LCOR   =        T    correct aug charges                                                         
   LPAW   =        T    paw PP                                                                      
   EAUG   =  370.139                                                                                
   DEXC   =    0.000                                                                                
   RMAX   =    2.359    core radius for proj-oper                                                   
   RAUG   =    1.300    factor for augmentation sphere                                              
   RDEP   =    2.392    radius for radial grids                                                     
   RDEPT  =    2.170    core radius for aug-charge                                                  
                                                                                                    
   Atomic configuration                                                                             
   13 entries                                                                                       
     n  l   j            E        occ.                                                              
     1  0  0.50    -32976.3739   2.0000                                                             
     2  0  0.50     -5094.5933   2.0000                                                             
     2  1  1.50     -4572.0131   6.0000                                                             
     3  0  0.50     -1028.2813   2.0000                                                             
     3  1  1.50      -859.0250   6.0000                                                             
     3  2  2.50      -605.7620  10.0000                                                             
     4  0  0.50      -180.5540   2.0000                                                             
     4  1  1.50      -127.5306   6.0000                                                             
     4  2  2.50       -50.2720  10.0000                                                             
     5  0  0.50       -17.4058   2.0000                                                             
     5  1  0.50        -7.0851   5.0000                                                             
     5  2  1.50        -7.0750   0.0000                                                             
     4  3  2.50        -7.0750   0.0000                                                             
   Description                                                                                      
     l       E           TYP  RCUT    TYP  RCUT                                                     
     0    -17.4058016     23  2.300                                                                 
     0    -18.7663842     23  2.300                                                                 
     1     -7.0850686     23  2.300                                                                 
     1     -4.2150896     23  2.300                                                                 
     2     -7.0750295     23  2.300                                                                 
     3     -1.3605826     23  2.300                                                                 
  local pseudopotential read in
  partial core-charges read in
  partial kinetic energy density read in
  atomic valenz-charges read in
  non local Contribution for L=           0  read in
    real space projection operators read in
  non local Contribution for L=           0  read in
    real space projection operators read in
  non local Contribution for L=           1  read in
    real space projection operators read in
  non local Contribution for L=           1  read in
    real space projection operators read in
  non local Contribution for L=           2  read in
    real space projection operators read in
    PAW grid and wavefunctions read in
 
   number of l-projection  operators is LMAX  =           5
   number of lm-projection operators is LMMAX =          13
 
 -----------------------------------------------------------------------------
|                                                                             |
|               ----> ADVICE to this user running VASP <----                  |
|                                                                             |
|     You have a (more or less) 'large supercell' and for larger cells it     |
|     might be more efficient to use real-space projection operators.         |
|     Therefore, try LREAL= Auto in the INCAR file.                           |
|     Mind: For very accurate calculation, you might also keep the            |
|     reciprocal projection scheme (i.e. LREAL=.FALSE.).                      |
|                                                                             |
 -----------------------------------------------------------------------------

  PAW_PBE Ag 02Apr2005                  :
 energy of atom  1       EATOM=-1037.2675
 kinetic energy error for atom=    0.0686 (will be added to EATOM!!)
  PAW_PBE Bi 08Apr2002                  :
 energy of atom  2       EATOM= -150.8133
 kinetic energy error for atom=    0.0004 (will be added to EATOM!!)
  PAW_PBE I 08Apr2002                   :
 energy of atom  3       EATOM= -315.8678
 kinetic energy error for atom=    0.0044 (will be added to EATOM!!)
 
 
 POSCAR: Generation Seed Number
  positions in direct lattice
  velocities in cartesian coordinates
 exchange correlation table for  LEXCH =        8
   RHO(1)=    0.500       N(1)  =     2000
   RHO(2)=  100.500       N(2)  =     4000
 


--------------------------------------------------------------------------------------------------------


 ion  position               nearest neighbor table
   1  0.988  0.023  0.996-  21 2.94  25 2.99  34 3.07  33 3.11  17 3.19  27 3.55
   2  0.502  0.498  0.998-  23 3.02  40 3.03  39 3.07  19 3.07  29 3.25  31 3.29
   3  0.976  0.251  0.225-  35 2.96  33 2.97  25 2.97  45 2.97
   4  0.504  0.977  0.511-  38 2.94  32 2.98  22 3.07  18 3.13  37 3.18  30 3.55
   5  0.748  0.004  0.753-  21 3.02  38 3.03  34 3.07  22 3.07  46 3.23  48 3.33
   6  0.745  0.477  0.240-  23 2.94  45 2.99  39 3.07  35 3.15  24 3.15  47 3.56
   7  0.260  0.524  0.755-  40 2.94  44 2.99  19 3.07  20 3.15  36 3.15  42 3.57
   8  0.275  0.751  0.524-  18 2.96  20 2.96  32 2.97  44 2.97
   9  0.249  0.253  0.999-  19 3.03  25 3.05  42 3.13  41 3.14  17 3.19  29 3.21
  10  0.750  0.750  1.000-  48 3.11  31 3.11  21 3.11  23 3.11  47 3.14  27 3.14
  11  0.003  0.500  0.498-  20 3.07  35 3.07  28 3.14  26 3.14  36 3.19  24 3.19
  12  0.001  0.754  0.752-  34 3.03  44 3.06  27 3.12  28 3.14  36 3.20  48 3.20
  13  0.248  0.000  0.252-  18 3.07  33 3.07  43 3.14  41 3.14  17 3.18  37 3.18
  14  0.502  0.747  0.251-  39 3.03  32 3.06  47 3.12  43 3.14  37 3.20  31 3.20
  15  0.500  0.250  0.750-  38 3.11  40 3.11  29 3.11  46 3.12  42 3.14  30 3.14
  16  0.749  0.247  0.498-  22 3.03  45 3.05  30 3.13  26 3.14  24 3.20  46 3.21
  17  0.239  0.002  0.002-  13 3.18   9 3.19   1 3.19
  18  0.259  0.981  0.493-   8 2.96  13 3.07   4 3.13
  19  0.261  0.492  0.995-   9 3.03   7 3.07   2 3.07
  20  0.243  0.520  0.508-   8 2.96  11 3.07   7 3.15
  21  0.759  0.994  0.990-   1 2.94   5 3.02  10 3.11
  22  0.744  0.008  0.511-  16 3.03   4 3.07   5 3.07
  23  0.740  0.505  0.011-   6 2.94   2 3.02  10 3.11
  24  0.752  0.498  0.487-   6 3.15  11 3.19  16 3.20
  25  0.008  0.257  0.994-   3 2.97   1 2.99   9 3.05
  26  0.996  0.254  0.509-  11 3.14  16 3.14
  27  0.997  0.744  0.997-  12 3.12  10 3.14   1 3.55
  28  0.991  0.747  0.505-  11 3.14  12 3.14
  29  0.501  0.243  0.995-  15 3.11   9 3.21   2 3.25
  30  0.503  0.257  0.503-  16 3.13  15 3.14   4 3.55
  31  0.505  0.757  1.000-  10 3.11  14 3.20   2 3.29
  32  0.506  0.743  0.492-   8 2.97   4 2.98  14 3.06
  33  0.007  0.020  0.241-   3 2.97  13 3.07   1 3.11
  34  0.989  0.992  0.757-  12 3.03   5 3.07   1 3.07
  35  0.992  0.481  0.257-   3 2.96  11 3.07   6 3.15
  36  0.014  0.502  0.748-   7 3.15  11 3.19  12 3.20
  37  0.498  0.998  0.262-   4 3.18  13 3.18  14 3.20
  38  0.510  0.006  0.741-   4 2.94   5 3.03  15 3.11
  39  0.505  0.508  0.240-  14 3.03   2 3.07   6 3.07
  40  0.490  0.495  0.760-   7 2.94   2 3.03  15 3.11
  41  0.259  0.247  0.246-  13 3.14   9 3.14
  42  0.253  0.243  0.753-   9 3.13  15 3.14   7 3.57
  43  0.254  0.754  0.241-  13 3.14  14 3.14
  44  0.242  0.758  0.756-   8 2.97   7 2.99  12 3.06
  45  0.745  0.242  0.258-   3 2.97   6 2.99  16 3.05
  46  0.745  0.258  0.751-  15 3.12  16 3.21   5 3.23
  47  0.747  0.757  0.247-  14 3.12  10 3.14   6 3.56
  48  0.750  0.742  0.755-  10 3.11  12 3.20   5 3.33
 
 -----------------------------------------------------------------------------
|                                                                             |
|           W    W    AA    RRRRR   N    N  II  N    N   GGGG   !!!           |
|           W    W   A  A   R    R  NN   N  II  NN   N  G    G  !!!           |
|           W    W  A    A  R    R  N N  N  II  N N  N  G       !!!           |
|           W WW W  AAAAAA  RRRRR   N  N N  II  N  N N  G  GGG   !            |
|           WW  WW  A    A  R   R   N   NN  II  N   NN  G    G                |
|           W    W  A    A  R    R  N    N  II  N    N   GGGG   !!!           |
|                                                                             |
|     The determination of the symmetry of your systems shows a strong        |
|     dependence on the tolerance parameter SYMPREC. This is often the        |
|     result of "noise" in the structural parameters (lattice vectors         |
|     and/or ionic positions). Set NWRITE=3 for more details.                 |
|                                                                             |
 -----------------------------------------------------------------------------

  LATTYP: Found a triclinic cell.
 ALAT       =    17.9734188018
 B/A-ratio  =     0.7071892445
 C/A-ratio  =     0.9998994611
 COS(alpha) =     0.0000134560
 COS(beta)  =     0.5000051084
 COS(gamma) =     0.7070802012
  
  Lattice vectors:
  
 A1 = (  12.7087563780, -12.7094962428,  -0.0000666064)
 A2 = (  -0.0008477048, -12.7106083783,  -0.0012020146)
 A3 = (  12.7083940299,   0.0001123195, -12.7073030544)


Analysis of symmetry for initial positions (statically):
=====================================================================
 Subroutine PRICEL returns:
 Original cell was already a primitive cell.
 

 Routine SETGRP: Setting up the symmetry group for a 
 triclinic supercell.


 Subroutine GETGRP returns: Found  1 space group operations
 (whereof  1 operations were pure point group operations)
 out of a pool of  2 trial point group operations.


The static configuration has the point symmetry C_1 .


Analysis of symmetry for dynamics (positions and initial velocities):
=====================================================================
 Subroutine PRICEL returns:
 Original cell was already a primitive cell.
 

 Routine SETGRP: Setting up the symmetry group for a 
 triclinic supercell.


 Subroutine GETGRP returns: Found  1 space group operations
 (whereof  1 operations were pure point group operations)
 out of a pool of  2 trial point group operations.


The dynamic configuration has the point symmetry C_1 .


 Subroutine INISYM returns: Found  1 space group operations
 (whereof  1 operations are pure point group operations),
 and found     1 'primitive' translations


----------------------------------------------------------------------------------------

                                     Primitive cell                                     

  volume of cell :    2053.0075

  direct lattice vectors                    reciprocal lattice vectors
    12.709604083  0.001112135  0.001135408     0.078680658 -0.000005247 -0.000007491
     0.000847705 12.710608378  0.001202015    -0.000006884  0.078674441 -0.000006189
     0.001210053  0.000999816 12.708438463    -0.000007029 -0.000007441  0.078687875

  length of vectors
    12.709604182 12.710608463 12.708438560     0.078680659  0.078674442  0.078687876

  position of ions in fractional coordinates (direct lattice)
     0.988336470  0.022757939  0.996421941
     0.502432251  0.498276683  0.998274366
     0.976332966  0.250692592  0.225209319
     0.504458351  0.977144483  0.511162414
     0.747794268  0.003904761  0.753114716
     0.745155690  0.477138805  0.240373977
     0.260159195  0.523501382  0.755319467
     0.275051577  0.750611030  0.524431343
     0.248737852  0.253164593  0.998747781
     0.749520830  0.749793175  0.999664300
     0.003030460  0.500292357  0.497624814
     0.001465978  0.753526309  0.751833062
     0.248133859  0.000034903  0.252096048
     0.501599415  0.746635995  0.251446728
     0.500103090  0.250141677  0.750332740
     0.748864942  0.246697060  0.498346261
     0.238658632  0.002214339  0.002072199
     0.259203177  0.980982784  0.492885120
     0.260856738  0.491585128  0.994872875
     0.243279632  0.520252502  0.508388071
     0.758848845  0.994279019  0.990404902
     0.744244074  0.008458741  0.511231574
     0.739927539  0.505283566  0.010906024
     0.752448478  0.497833629  0.486944884
     0.008496988  0.256788327  0.993920278
     0.995835868  0.253646264  0.509131830
     0.996869270  0.743665373  0.997414585
     0.990919456  0.746667454  0.504717702
     0.500719592  0.242974022  0.995302337
     0.503151205  0.256638401  0.503289115
     0.504922337  0.756873702  0.999644104
     0.506193947  0.743171110  0.491871893
     0.007322266  0.019724356  0.240602761
     0.988963561  0.991840093  0.756764219
     0.992041361  0.480580407  0.257193568
     0.013641620  0.502318036  0.748087391
     0.498158900  0.997818724  0.262241799
     0.509963812  0.005699404  0.740667632
     0.505253295  0.508281053  0.239639932
     0.489597689  0.494547927  0.760418598
     0.259019454  0.246635690  0.245708109
     0.253367108  0.243005346  0.753055039
     0.254494666  0.753684808  0.241228212
     0.241958302  0.758043154  0.755595058
     0.744927862  0.242337204  0.258250150
     0.745189825  0.257934607  0.750540763
     0.747062813  0.756931081  0.246977676
     0.749955624  0.741724644  0.755225911

  ion indices of the primitive-cell ions
   primitive index   ion index
                 1           1
                 2           2
                 3           3
                 4           4
                 5           5
                 6           6
                 7           7
                 8           8
                 9           9
                10          10
                11          11
                12          12
                13          13
                14          14
                15          15
                16          16
                17          17
                18          18
                19          19
                20          20
                21          21
                22          22
                23          23
                24          24
                25          25
                26          26
                27          27
                28          28
                29          29
                30          30
                31          31
                32          32
                33          33
                34          34
                35          35
                36          36
                37          37
                38          38
                39          39
                40          40
                41          41
                42          42
                43          43
                44          44
                45          45
                46          46
                47          47
                48          48

----------------------------------------------------------------------------------------

 
 
 KPOINTS: agbii                                   

Automatic generation of k-mesh.
Space group operators:
 irot       det(A)        alpha          n_x          n_y          n_z        tau_x        tau_y        tau_z
    1     1.000000     0.000001     1.000000     0.000000     0.000000     0.000000     0.000000     0.000000
 TETIRR: Found    192 inequivalent tetrahedra from      384
 
 Subroutine IBZKPT returns following result:
 ===========================================
 
 Found     36 irreducible k-points:
 
 Following reciprocal coordinates:
            Coordinates               Weight
  0.000000  0.000000  0.000000      1.000000
  0.250000  0.000000 -0.000000      2.000000
  0.500000  0.000000 -0.000000      1.000000
 -0.000000  0.250000 -0.000000      2.000000
  0.250000  0.250000 -0.000000      2.000000
  0.500000  0.250000 -0.000000      2.000000
 -0.250000  0.250000  0.000000      2.000000
 -0.000000  0.500000 -0.000000      1.000000
  0.250000  0.500000 -0.000000      2.000000
  0.500000  0.500000 -0.000000      1.000000
 -0.000000 -0.000000  0.250000      2.000000
  0.250000 -0.000000  0.250000      2.000000
  0.500000 -0.000000  0.250000      2.000000
 -0.250000 -0.000000  0.250000      2.000000
 -0.000000  0.250000  0.250000      2.000000
  0.250000  0.250000  0.250000      2.000000
  0.500000  0.250000  0.250000      2.000000
 -0.250000  0.250000  0.250000      2.000000
 -0.000000  0.500000  0.250000      2.000000
  0.250000  0.500000  0.250000      2.000000
  0.500000  0.500000  0.250000      2.000000
 -0.250000  0.500000  0.250000      2.000000
  0.000000 -0.250000  0.250000      2.000000
  0.250000 -0.250000  0.250000      2.000000
  0.500000 -0.250000  0.250000      2.000000
 -0.250000 -0.250000  0.250000      2.000000
 -0.000000 -0.000000  0.500000      1.000000
  0.250000 -0.000000  0.500000      2.000000
  0.500000 -0.000000  0.500000      1.000000
 -0.000000  0.250000  0.500000      2.000000
  0.250000  0.250000  0.500000      2.000000
  0.500000  0.250000  0.500000      2.000000
 -0.250000  0.250000  0.500000      2.000000
 -0.000000  0.500000  0.500000      1.000000
  0.250000  0.500000  0.500000      2.000000
  0.500000  0.500000  0.500000      1.000000
 
 Following cartesian coordinates:
            Coordinates               Weight
  0.000000  0.000000  0.000000      1.000000
  0.019670 -0.000001 -0.000002      2.000000
  0.039340 -0.000003 -0.000004      1.000000
 -0.000002  0.019669 -0.000002      2.000000
  0.019668  0.019667 -0.000003      2.000000
  0.039339  0.019666 -0.000005      2.000000
 -0.019672  0.019670  0.000000      2.000000
 -0.000003  0.039337 -0.000003      1.000000
  0.019667  0.039336 -0.000005      2.000000
  0.039337  0.039335 -0.000007      1.000000
 -0.000002 -0.000002  0.019672      2.000000
  0.019668 -0.000003  0.019670      2.000000
  0.039339 -0.000004  0.019668      2.000000
 -0.019672 -0.000001  0.019674      2.000000
 -0.000003  0.019667  0.019670      2.000000
  0.019667  0.019665  0.019669      2.000000
  0.039337  0.019664  0.019667      2.000000
 -0.019674  0.019668  0.019672      2.000000
 -0.000005  0.039335  0.019669      2.000000
  0.019665  0.039334  0.019667      2.000000
  0.039335  0.039333  0.019665      2.000000
 -0.019675  0.039337  0.019671      2.000000
 -0.000000 -0.019670  0.019674      2.000000
  0.019670 -0.019672  0.019672      2.000000
  0.039340 -0.019673  0.019670      2.000000
 -0.019670 -0.019669  0.019675      2.000000
 -0.000004 -0.000004  0.039344      1.000000
  0.019667 -0.000005  0.039342      2.000000
  0.039337 -0.000006  0.039340      1.000000
 -0.000005  0.019665  0.039342      2.000000
  0.019665  0.019664  0.039341      2.000000
  0.039335  0.019662  0.039339      2.000000
 -0.019675  0.019666  0.039344      2.000000
 -0.000007  0.039334  0.039341      1.000000
  0.019663  0.039332  0.039339      2.000000
  0.039333  0.039331  0.039337      1.000000
 


--------------------------------------------------------------------------------------------------------




 Dimension of arrays:
   k-points           NKPTS =     36   k-points in BZ     NKDIM =     36   number of bands    NBANDS=    211
   number of dos      NEDOS =   3000   number of ions     NIONS =     48
   non local maximal  LDIM  =      6   non local SUM 2l+1 LMDIM =     18
   total plane-waves  NPLWV = 125000
   max r-space proj   IRMAX =      1   max aug-charges    IRDMAX=   5999
   dimension x,y,z NGX =    50 NGY =   50 NGZ =   50
   dimension x,y,z NGXF=   100 NGYF=  100 NGZF=  100
   support grid    NGXF=   100 NGYF=  100 NGZF=  100
   ions per type =               8   8  32
   NGX,Y,Z   is equivalent  to a cutoff of   6.54,  6.54,  6.54 a.u.
   NGXF,Y,Z  is equivalent  to a cutoff of  13.08, 13.08, 13.08 a.u.

 SYSTEM =  unknown system                          
 POSCAR =  Generation Seed Number                  

 Startparameter for this run:
   NWRITE =      2    write-flag & timer
   PREC   = normal    normal or accurate (medium, high low for compatibility)
   ISTART =      1    job   : 0-new  1-cont  2-samecut
   ICHARG =      1    charge: 1-file 2-atom 10-const
   ISPIN  =      1    spin polarized calculation?
   LNONCOLLINEAR =      F non collinear calculations
   LSORBIT =      F    spin-orbit coupling
   INIWAV =      1    electr: 0-lowe 1-rand  2-diag
   LASPH  =      F    aspherical Exc in radial PAW
   METAGGA=      F    non-selfconsistent MetaGGA calc.

 Electronic Relaxation 1
   ENCUT  =  250.0 eV  18.37 Ry    4.29 a.u.  16.39 16.39 16.38*2*pi/ulx,y,z
   ENINI  =  250.0     initial cutoff
   ENAUG  =  412.5 eV  augmentation charge cutoff
   NELM   =     60;   NELMIN=  2; NELMDL=  0     # of ELM steps 
   EDIFF  = 0.1E-05   stopping-criterion for ELM
   LREAL  =      F    real-space projection
   NLSPLINE    = F    spline interpolate recip. space projectors
   LCOMPAT=      F    compatible to vasp.4.4
   GGA_COMPAT  = T    GGA compatible to vasp.4.4-vasp.4.6
   LMAXPAW     = -100 max onsite density
   LMAXMIX     =    4 max onsite mixed and CHGCAR
   VOSKOWN=      0    Vosko Wilk Nusair interpolation
   ROPT   =    0.00000   0.00000   0.00000
 Ionic relaxation
   EDIFFG = -.1E-01   stopping-criterion for IOM
   NSW    =      0    number of steps for IOM
   NBLOCK =      1;   KBLOCK =      1    inner block; outer block 
   IBRION =     -1    ionic relax: 0-MD 1-quasi-New 2-CG
   NFREE  =      0    steps in history (QN), initial steepest desc. (CG)
   ISIF   =     -1    stress and relaxation
   IWAVPR =     10    prediction:  0-non 1-charg 2-wave 3-comb
   ISYM   =      2    0-nonsym 1-usesym 2-fastsym
   LCORR  =      T    Harris-Foulkes like correction to forces

   POTIM  = 0.5000    time-step for ionic-motion
   TEIN   =    0.0    initial temperature
   TEBEG  =    0.0;   TEEND  =   0.0 temperature during run
   SMASS  =  -3.00    Nose mass-parameter (am)
   estimated Nose-frequenzy (Omega)   =  0.10E-29 period in steps = 0.13E+47 mass=  -0.369E-26a.u.
   SCALEE = 1.0000    scale energy and forces
   NPACO  =    256;   APACO  = 16.0  distance and # of slots for P.C.
   PSTRESS=    0.0 pullay stress

  Mass of Ions in am
   POMASS = 107.87208.98126.90
  Ionic Valenz
   ZVAL   =  11.00  5.00  7.00
  Atomic Wigner-Seitz radii
   RWIGS  =  -1.00 -1.00 -1.00
  virtual crystal weights 
   VCA    =   1.00  1.00  1.00
   NELECT =     352.0000    total number of electrons
   NUPDOWN=      -1.0000    fix difference up-down

 DOS related values:
   EMIN   =  10.00;   EMAX   =-10.00  energy-range for DOS
   EFERMI =   0.00
   ISMEAR =    -5;   SIGMA  =   0.20  broadening in eV -4-tet -1-fermi 0-gaus

 Electronic relaxation 2 (details)
   IALGO  =     38    algorithm
   LDIAG  =      T    sub-space diagonalisation (order eigenvalues)
   LSUBROT=      F    optimize rotation matrix (better conditioning)
   TURBO    =      0    0=normal 1=particle mesh
   IRESTART =      0    0=no restart 2=restart with 2 vectors
   NREBOOT  =      0    no. of reboots
   NMIN     =      0    reboot dimension
   EREF     =   0.00    reference energy to select bands
   IMIX   =      4    mixing-type and parameters
     AMIX     =   0.40;   BMIX     =  1.00
     AMIX_MAG =   1.60;   BMIX_MAG =  1.00
     AMIN     =   0.10
     WC   =   100.;   INIMIX=   1;  MIXPRE=   1;  MAXMIX= -45

 Intra band minimization:
   WEIMIN = 0.0000     energy-eigenvalue tresh-hold
   EBREAK =  0.12E-08  absolut break condition
   DEPER  =   0.30     relativ break condition  

   TIME   =   0.40     timestep for ELM

  volume/ion in A,a.u.               =      42.77       288.63
  Fermi-wavevector in a.u.,A,eV,Ry     =   0.909478  1.718664 11.254063  0.827150
  Thomas-Fermi vector in A             =   2.033527
 
 Write flags
   LWAVE        =      T    write WAVECAR
   LDOWNSAMPLE  =      F    k-point downsampling of WAVECAR
   LCHARG       =      T    write CHGCAR
   LVTOT        =      F    write LOCPOT, total local potential
   LVHAR        =      F    write LOCPOT, Hartree potential only
   LELF         =      F    write electronic localiz. function (ELF)
   LORBIT       =     10    0 simple, 1 ext, 2 COOP (PROOUT), +10 PAW based schemes


 Dipole corrections
   LMONO  =      F    monopole corrections only (constant potential shift)
   LDIPOL =      F    correct potential (dipole corrections)
   IDIPOL =      0    1-x, 2-y, 3-z, 4-all directions 
   EPSILON=  1.0000000 bulk dielectric constant

 Exchange correlation treatment:
   GGA     =    --    GGA type
   LEXCH   =     8    internal setting for exchange type
   VOSKOWN=      0    Vosko Wilk Nusair interpolation
   LHFCALC =     F    Hartree Fock is set to
   LHFONE  =     F    Hartree Fock one center treatment
   AEXX    =    0.0000 exact exchange contribution

 Linear response parameters
   LEPSILON=     F    determine dielectric tensor
   LRPA    =     F    only Hartree local field effects (RPA)
   LNABLA  =     F    use nabla operator in PAW spheres
   LVEL    =     F    velocity operator in full k-point grid
   LINTERFAST=   F  fast interpolation
   KINTER  =     0    interpolate to denser k-point grid
   CSHIFT  =0.1000    complex shift for real part using Kramers Kronig
   OMEGAMAX=  -1.0    maximum frequency
   DEG_THRESHOLD= 0.2000000E-02 threshold for treating states as degnerate
   RTIME   =   -0.100 relaxation time in fs
  (WPLASMAI=    0.000 imaginary part of plasma frequency in eV, 0.658/RTIME)
   DFIELD  = 0.0000000 0.0000000 0.0000000 field for delta impulse in time
 
 Orbital magnetization related:
   ORBITALMAG=     F  switch on orbital magnetization
   LCHIMAG   =     F  perturbation theory with respect to B field
   DQ        =  0.001000  dq finite difference perturbation B field
   LLRAUG    =     F  two centre corrections for induced B field



--------------------------------------------------------------------------------------------------------


 Static calculation
 charge density and potential will be updated during run
 non-spin polarized calculation
 Variant of blocked Davidson
 Davidson routine will perform the subspace rotation
 perform sub-space diagonalisation
    after iterative eigenvector-optimisation
 modified Broyden-mixing scheme, WC =      100.0
 initial mixing is a Kerker type mixing with AMIX =  0.4000 and BMIX =      1.0000
 Hartree-type preconditioning will be used
 using additional bands           35
 reciprocal scheme for non local part
 use partial core corrections
 calculate Harris-corrections to forces 
   (improved forces if not selfconsistent)
 use gradient corrections 
 use of overlap-Matrix (Vanderbilt PP)
 Fermi weights with tetrahedron method with Bloechl corrections


--------------------------------------------------------------------------------------------------------


  energy-cutoff  :      250.00
  volume of cell :     2053.01
      direct lattice vectors                 reciprocal lattice vectors
    12.709604083  0.001112135  0.001135408     0.078680658 -0.000005247 -0.000007491
     0.000847705 12.710608378  0.001202015    -0.000006884  0.078674441 -0.000006189
     0.001210053  0.000999816 12.708438463    -0.000007029 -0.000007441  0.078687875

  length of vectors
    12.709604182 12.710608463 12.708438560     0.078680659  0.078674442  0.078687876


 
 old parameters found on file WAVECAR:
  energy-cutoff  :      250.00
  volume of cell :     2053.01
      direct lattice vectors                 reciprocal lattice vectors
    12.709604083  0.001112135  0.001135408     0.078680658 -0.000005247 -0.000007491
     0.000847705 12.710608378  0.001202015    -0.000006884  0.078674441 -0.000006189
     0.001210053  0.000999816 12.708438463    -0.000007029 -0.000007441  0.078687875

  length of vectors

 
 k-points in units of 2pi/SCALE and weight: agbii                                   
   0.00000000  0.00000000  0.00000000       0.016
   0.01967016 -0.00000131 -0.00000187       0.031
   0.03934033 -0.00000262 -0.00000375       0.016
  -0.00000172  0.01966861 -0.00000155       0.031
   0.01966844  0.01966730 -0.00000342       0.031
   0.03933861  0.01966599 -0.00000529       0.031
  -0.01967189  0.01966992  0.00000033       0.031
  -0.00000344  0.03933722 -0.00000309       0.016
   0.01966672  0.03933591 -0.00000497       0.031
   0.03933689  0.03933460 -0.00000684       0.016
  -0.00000176 -0.00000186  0.01967197       0.031
   0.01966841 -0.00000317  0.01967010       0.031
   0.03933857 -0.00000448  0.01966822       0.031
  -0.01967192 -0.00000055  0.01967384       0.031
  -0.00000348  0.01966675  0.01967042       0.031
   0.01966669  0.01966544  0.01966855       0.031
   0.03933685  0.01966413  0.01966668       0.031
  -0.01967364  0.01966806  0.01967229       0.031
  -0.00000520  0.03933536  0.01966887       0.031
   0.01966497  0.03933405  0.01966700       0.031
   0.03933513  0.03933274  0.01966513       0.031
  -0.01967536  0.03933667  0.01967075       0.031
  -0.00000004 -0.01967047  0.01967352       0.031
   0.01967013 -0.01967178  0.01967164       0.031
   0.03934029 -0.01967309  0.01966977       0.031
  -0.01967020 -0.01966916  0.01967539       0.031
  -0.00000351 -0.00000372  0.03934394       0.016
   0.01966665 -0.00000503  0.03934206       0.031
   0.03933681 -0.00000634  0.03934019       0.016
  -0.00000524  0.01966489  0.03934239       0.031
   0.01966493  0.01966358  0.03934052       0.031
   0.03933509  0.01966227  0.03933864       0.031
  -0.01967540  0.01966620  0.03934426       0.031
  -0.00000696  0.03933350  0.03934084       0.016
   0.01966321  0.03933219  0.03933897       0.031
   0.03933337  0.03933088  0.03933710       0.016
 
 k-points in reciprocal lattice and weights: agbii                                   
   0.00000000  0.00000000  0.00000000       0.016
   0.25000000  0.00000000 -0.00000000       0.031
   0.50000000  0.00000000 -0.00000000       0.016
  -0.00000000  0.25000000 -0.00000000       0.031
   0.25000000  0.25000000 -0.00000000       0.031
   0.50000000  0.25000000 -0.00000000       0.031
  -0.25000000  0.25000000  0.00000000       0.031
  -0.00000000  0.50000000 -0.00000000       0.016
   0.25000000  0.50000000 -0.00000000       0.031
   0.50000000  0.50000000 -0.00000000       0.016
  -0.00000000 -0.00000000  0.25000000       0.031
   0.25000000 -0.00000000  0.25000000       0.031
   0.50000000 -0.00000000  0.25000000       0.031
  -0.25000000 -0.00000000  0.25000000       0.031
  -0.00000000  0.25000000  0.25000000       0.031
   0.25000000  0.25000000  0.25000000       0.031
   0.50000000  0.25000000  0.25000000       0.031
  -0.25000000  0.25000000  0.25000000       0.031
  -0.00000000  0.50000000  0.25000000       0.031
   0.25000000  0.50000000  0.25000000       0.031
   0.50000000  0.50000000  0.25000000       0.031
  -0.25000000  0.50000000  0.25000000       0.031
   0.00000000 -0.25000000  0.25000000       0.031
   0.25000000 -0.25000000  0.25000000       0.031
   0.50000000 -0.25000000  0.25000000       0.031
  -0.25000000 -0.25000000  0.25000000       0.031
  -0.00000000 -0.00000000  0.50000000       0.016
   0.25000000 -0.00000000  0.50000000       0.031
   0.50000000 -0.00000000  0.50000000       0.016
  -0.00000000  0.25000000  0.50000000       0.031
   0.25000000  0.25000000  0.50000000       0.031
   0.50000000  0.25000000  0.50000000       0.031
  -0.25000000  0.25000000  0.50000000       0.031
  -0.00000000  0.50000000  0.50000000       0.016
   0.25000000  0.50000000  0.50000000       0.031
   0.50000000  0.50000000  0.50000000       0.016
 
 position of ions in fractional coordinates (direct lattice) 
   0.98833647  0.02275794  0.99642194
   0.50243225  0.49827668  0.99827437
   0.97633297  0.25069259  0.22520932
   0.50445835  0.97714448  0.51116241
   0.74779427  0.00390476  0.75311472
   0.74515569  0.47713880  0.24037398
   0.26015920  0.52350138  0.75531947
   0.27505158  0.75061103  0.52443134
   0.24873785  0.25316459  0.99874778
   0.74952083  0.74979318  0.99966430
   0.00303046  0.50029236  0.49762481
   0.00146598  0.75352631  0.75183306
   0.24813386  0.00003490  0.25209605
   0.50159941  0.74663600  0.25144673
   0.50010309  0.25014168  0.75033274
   0.74886494  0.24669706  0.49834626
   0.23865863  0.00221434  0.00207220
   0.25920318  0.98098278  0.49288512
   0.26085674  0.49158513  0.99487287
   0.24327963  0.52025250  0.50838807
   0.75884884  0.99427902  0.99040490
   0.74424407  0.00845874  0.51123157
   0.73992754  0.50528357  0.01090602
   0.75244848  0.49783363  0.48694488
   0.00849699  0.25678833  0.99392028
   0.99583587  0.25364626  0.50913183
   0.99686927  0.74366537  0.99741458
   0.99091946  0.74666745  0.50471770
   0.50071959  0.24297402  0.99530234
   0.50315120  0.25663840  0.50328911
   0.50492234  0.75687370  0.99964410
   0.50619395  0.74317111  0.49187189
   0.00732227  0.01972436  0.24060276
   0.98896356  0.99184009  0.75676422
   0.99204136  0.48058041  0.25719357
   0.01364162  0.50231804  0.74808739
   0.49815890  0.99781872  0.26224180
   0.50996381  0.00569940  0.74066763
   0.50525330  0.50828105  0.23963993
   0.48959769  0.49454793  0.76041860
   0.25901945  0.24663569  0.24570811
   0.25336711  0.24300535  0.75305504
   0.25449467  0.75368481  0.24122821
   0.24195830  0.75804315  0.75559506
   0.74492786  0.24233720  0.25825015
   0.74518983  0.25793461  0.75054076
   0.74706281  0.75693108  0.24697768
   0.74995562  0.74172464  0.75522591
 
 position of ions in cartesian coordinates  (Angst):
  12.56259025  0.29136266 12.66411644
   6.38734535  6.33495664 12.68767775
  12.40929048  3.18776635  2.86346865
   6.41291278 12.42117295  6.49782339
   9.50508370  0.05121651  9.57176577
   9.47132914  6.06579353  3.05619747
   3.30787812  6.65506557  9.59985561
   3.49706753  9.54155308  6.66591799
   3.16278276  3.21915119 12.69311144
   9.52795826  9.53216046 12.70592452
   0.03954220  6.35952113  6.32463913
   0.02018052  9.57853114  9.55553162
   3.15398818  0.00097165  3.20402888
   6.37606716  9.49100698  3.19696226
   6.35723226  3.18075927  9.53642595
   9.51858907  3.13700081  6.33434959
   3.03326111  0.02841309  0.02660805
   3.29579776 12.46966906  6.26527368
   3.31700643  6.24963084 12.64416778
   3.09304400  6.61350466  6.46172008
   9.64670967 12.63972540 12.58855649
   9.45967331  0.10885458  6.49781019
   9.40462760  6.42329533  0.14004601
   9.56433350  6.32909198  6.18976184
   0.10941373  3.26493905 12.63149300
  12.65751071  3.22561487  6.47170610
  12.67165108  9.45454520 12.67760762
  12.59543766  9.49220426  6.41619646
   6.36535811  3.08989963 12.64959909
   6.39567917  3.26309299  6.39689851
   6.41921422  9.62188623 12.70539865
   6.43474983  9.44721167  6.25239172
   0.09337097  0.25095726  3.05771741
  12.57109182 12.60874748  9.61960660
  12.60917154  6.10982977  3.27023267
   0.17471063  6.38553096  9.50764185
   6.33256557 12.68369925  3.33444878
   6.48233922  0.07375057  9.41331490
   6.42229019  6.46136292  3.04663396
   6.22393217  6.28730981  9.66488330
   3.29254110  3.13542339  3.12315693
   3.22131286  3.08978048  9.57073339
   3.23545725  9.58031665  3.06682879
   3.07675113  9.63621421  9.60361920
   9.46825612  3.08133996  3.28309324
   9.47219449  3.28008493  9.53935724
   9.49581309  9.62213230  3.14045866
   9.53318168  9.42936061  9.59948508
 


--------------------------------------------------------------------------------------------------------


 k-point   1 :   0.0000 0.0000 0.0000  plane waves:   18349
 k-point   2 :   0.2500 0.0000-0.0000  plane waves:   18468
 k-point   3 :   0.5000 0.0000-0.0000  plane waves:   18464
 k-point   4 :  -0.0000 0.2500-0.0000  plane waves:   18468
 k-point   5 :   0.2500 0.2500-0.0000  plane waves:   18429
 k-point   6 :   0.5000 0.2500-0.0000  plane waves:   18418
 k-point   7 :  -0.2500 0.2500 0.0000  plane waves:   18429
 k-point   8 :  -0.0000 0.5000-0.0000  plane waves:   18464
 k-point   9 :   0.2500 0.5000-0.0000  plane waves:   18418
 k-point  10 :   0.5000 0.5000-0.0000  plane waves:   18434
 k-point  11 :  -0.0000-0.0000 0.2500  plane waves:   18467
 k-point  12 :   0.2500-0.0000 0.2500  plane waves:   18429
 k-point  13 :   0.5000-0.0000 0.2500  plane waves:   18418
 k-point  14 :  -0.2500-0.0000 0.2500  plane waves:   18429
 k-point  15 :  -0.0000 0.2500 0.2500  plane waves:   18429
 k-point  16 :   0.2500 0.2500 0.2500  plane waves:   18430
 k-point  17 :   0.5000 0.2500 0.2500  plane waves:   18438
 k-point  18 :  -0.2500 0.2500 0.2500  plane waves:   18430
 k-point  19 :  -0.0000 0.5000 0.2500  plane waves:   18418
 k-point  20 :   0.2500 0.5000 0.2500  plane waves:   18438
 k-point  21 :   0.5000 0.5000 0.2500  plane waves:   18435
 k-point  22 :  -0.2500 0.5000 0.2500  plane waves:   18438
 k-point  23 :   0.0000-0.2500 0.2500  plane waves:   18429
 k-point  24 :   0.2500-0.2500 0.2500  plane waves:   18430
 k-point  25 :   0.5000-0.2500 0.2500  plane waves:   18438
 k-point  26 :  -0.2500-0.2500 0.2500  plane waves:   18430
 k-point  27 :  -0.0000-0.0000 0.5000  plane waves:   18464
 k-point  28 :   0.2500-0.0000 0.5000  plane waves:   18418
 k-point  29 :   0.5000-0.0000 0.5000  plane waves:   18454
 k-point  30 :  -0.0000 0.2500 0.5000  plane waves:   18418
 k-point  31 :   0.2500 0.2500 0.5000  plane waves:   18438
 k-point  32 :   0.5000 0.2500 0.5000  plane waves:   18435
 k-point  33 :  -0.2500 0.2500 0.5000  plane waves:   18438
 k-point  34 :  -0.0000 0.5000 0.5000  plane waves:   18444
 k-point  35 :   0.2500 0.5000 0.5000  plane waves:   18436
 k-point  36 :   0.5000 0.5000 0.5000  plane waves:   18336

 maximum and minimum number of plane-waves per node :     18468    18336

 maximum number of plane-waves:     18468
 maximum index in each direction: 
   IXMAX=   16   IYMAX=   16   IZMAX=   16
   IXMIN=  -16   IYMIN=  -16   IZMIN=  -16


 serial   3D FFT for wavefunctions
 parallel 3D FFT for charge:
    minimum data exchange during FFTs selected (reduces bandwidth)


 total amount of memory used by VASP MPI-rank0  2762089. kBytes
=======================================================================

   base      :      30000. kBytes
   nonl-proj :     301397. kBytes
   fftplans  :      34720. kBytes
   grid      :      70000. kBytes
   one-center:        746. kBytes
   wavefun   :    2325226. kBytes
 
     INWAV:  cpu time    4.5814: real time    7.2705
 Broyden mixing: mesh for mixing (old mesh)
   NGX = 33   NGY = 33   NGZ = 33
  (NGX  =100   NGY  =100   NGZ  =100)
  gives a total of  35937 points

 initial charge density was supplied:
 number of electron     352.0000298 magnetization 
 keeping initial charge density in first step


--------------------------------------------------------------------------------------------------------


 Maximum index for augmentation-charges         5631 (set IRDMAX)


--------------------------------------------------------------------------------------------------------


 First call to EWALD:  gamma=   0.139
 Maximum number of real-space cells 3x 3x 3
 Maximum number of reciprocal cells 3x 3x 3

    FEWALD:  cpu time    0.0026: real time    0.0026


--------------------------------------- Iteration      1(   1)  ---------------------------------------


    POTLOK:  cpu time    0.5738: real time    0.5954
    SETDIJ:  cpu time    0.0277: real time    0.0278
     EDDAV:  cpu time   57.0814: real time   57.0864
 BZINTS: Fermi energy:    2.093142;  352.000000 electrons
         Band energy:-0.747564E+03;  BLOECHL correction:    0.000000
       DOS:  cpu time    0.0592: real time    0.0592
    CHARGE:  cpu time    1.2173: real time    1.2174
    MIXING:  cpu time    0.0273: real time    0.0273
    --------------------------------------------
      LOOP:  cpu time   58.9869: real time   59.0135

 eigenvalue-minimisations  : 10584
 total energy-change (2. order) :-0.1199660E+03  (-0.3009035E-06)
 number of electron     352.0000298 magnetization 
 augmentation part      -23.1226635 magnetization 

 Broyden mixing:
  rms(total) = 0.67664E-03    rms(broyden)= 0.67661E-03
  rms(prec ) = 0.79441E-03
  weight for this iteration     100.00

 Free energy of the ion-electron system (eV)
  ---------------------------------------------------
  alpha Z        PSCENC =       226.83713545
  Ewald energy   TEWEN  =    -13911.39451573
  -Hartree energ DENC   =     -6049.78578171
  -exchange      EXHF   =         0.00000000
  -V(xc)+E(xc)   XCENC  =     -1392.28922268
  PAW double counting   =     22647.16886248   -20504.66196516
  entropy T*S    EENTRO =         0.00000000
  eigenvalues    EBANDS =      -747.56424248
  atomic energy  EATOM  =     19611.72375700
  Solvation  Ediel_sol  =         0.00000000
  ---------------------------------------------------
  free energy    TOTEN  =      -119.96597282 eV

  energy without entropy =     -119.96597282  energy(sigma->0) =     -119.96597282


--------------------------------------------------------------------------------------------------------




--------------------------------------- Iteration      1(   2)  ---------------------------------------


    POTLOK:  cpu time    0.5589: real time    0.5590
    SETDIJ:  cpu time    0.0589: real time    0.0589
     EDDAV:  cpu time   48.0190: real time   48.0230
 BZINTS: Fermi energy:    2.093259;  352.000000 electrons
         Band energy:-0.747563E+03;  BLOECHL correction:    0.000000
       DOS:  cpu time    0.0558: real time    0.0558
    --------------------------------------------
      LOOP:  cpu time   48.6925: real time   48.6967

 eigenvalue-minimisations  :  8216
 total energy-change (2. order) : 0.9615542E-07  (-0.1296310E-06)
 number of electron     352.0000298 magnetization 
 augmentation part      -23.1226635 magnetization 

 Free energy of the ion-electron system (eV)
  ---------------------------------------------------
  alpha Z        PSCENC =       226.83713545
  Ewald energy   TEWEN  =    -13911.39451573
  -Hartree energ DENC   =     -6049.78646497
  -exchange      EXHF   =         0.00000000
  -V(xc)+E(xc)   XCENC  =     -1392.28869409
  PAW double counting   =     22646.73130872   -20504.22516178
  entropy T*S    EENTRO =         0.00000000
  eigenvalues    EBANDS =      -747.56333732
  atomic energy  EATOM  =     19611.72375700
  Solvation  Ediel_sol  =         0.00000000
  ---------------------------------------------------
  free energy    TOTEN  =      -119.96597273 eV

  energy without entropy =     -119.96597273  energy(sigma->0) =     -119.96597273


--------------------------------------------------------------------------------------------------------




 average (electrostatic) potential at core
  the test charge radii are     1.1249  1.4024  1.1875
  (the norm of the test charge is              1.0000)
       1 -75.0303       2 -74.9691       3 -75.1549       4 -75.0288       5 -74.9725
       6 -75.0273       7 -75.0268       8 -75.1509       9 -65.5000      10 -65.4704
      11 -65.4459      12 -65.4979      13 -65.4427      14 -65.4975      15 -65.4778
      16 -65.5026      17 -93.1461      18 -93.0584      19 -93.0414      20 -93.0578
      21 -92.9745      22 -93.0480      23 -92.9719      24 -93.1585      25 -93.2025
      26 -93.2956      27 -93.3059      28 -93.2951      29 -93.2925      30 -93.3116
      31 -93.2815      32 -93.1958      33 -93.0620      34 -93.0524      35 -93.0596
      36 -93.1591      37 -93.1512      38 -92.9724      39 -93.0443      40 -92.9724
      41 -93.2997      42 -93.3129      43 -93.2969      44 -93.1874      45 -93.1998
      46 -93.2944      47 -93.3024      48 -93.2709
 
 
 
 E-fermi :   2.0933     XC(G=0):  -7.8204     alpha+bet : -7.7965


 k-point     1 :       0.0000    0.0000    0.0000
  band No.  band energies     occupation 
      1     -10.8163      2.00000
      2     -10.6844      2.00000
      3     -10.6407      2.00000
      4     -10.5050      2.00000
      5     -10.4537      2.00000
      6     -10.2277      2.00000
      7     -10.1941      2.00000
      8     -10.0138      2.00000
      9      -9.8640      2.00000
     10      -9.8540      2.00000
     11      -9.8366      2.00000
     12      -9.8212      2.00000
     13      -9.8068      2.00000
     14      -9.7799      2.00000
     15      -9.7787      2.00000
     16      -9.7094      2.00000
     17      -9.6993      2.00000
     18      -9.6814      2.00000
     19      -9.6800      2.00000
     20      -9.6760      2.00000
     21      -9.6526      2.00000
     22      -9.6284      2.00000
     23      -9.6238      2.00000
     24      -9.5959      2.00000
     25      -9.5831      2.00000
     26      -9.5762      2.00000
     27      -9.5587      2.00000
     28      -9.5304      2.00000
     29      -9.5246      2.00000
     30      -9.5189      2.00000
     31      -9.5127      2.00000
     32      -9.4801      2.00000
     33      -8.1890      2.00000
     34      -8.0906      2.00000
     35      -8.0795      2.00000
     36      -7.8504      2.00000
     37      -7.8255      2.00000
     38      -7.6183      2.00000
     39      -7.6008      2.00000
     40      -7.5996      2.00000
     41      -1.7930      2.00000
     42      -1.7350      2.00000
     43      -1.6852      2.00000
     44      -1.6783      2.00000
     45      -1.6264      2.00000
     46      -1.5599      2.00000
     47      -1.4975      2.00000
     48      -1.4451      2.00000
     49      -1.4398      2.00000
     50      -1.4055      2.00000
     51      -1.4015      2.00000
     52      -1.3635      2.00000
     53      -1.3268      2.00000
     54      -1.2922      2.00000
     55      -1.2839      2.00000
     56      -1.2495      2.00000
     57      -1.2032      2.00000
     58      -1.1982      2.00000
     59      -1.1256      2.00000
     60      -1.0791      2.00000
     61      -1.0732      2.00000
     62      -1.0336      2.00000
     63      -0.9982      2.00000
     64      -0.9881      2.00000
     65      -0.9826      2.00000
     66      -0.9711      2.00000
     67      -0.9552      2.00000
     68      -0.9524      2.00000
     69      -0.9280      2.00000
     70      -0.8956      2.00000
     71      -0.8889      2.00000
     72      -0.8828      2.00000
     73      -0.8500      2.00000
     74      -0.8222      2.00000
     75      -0.8190      2.00000
     76      -0.7888      2.00000
     77      -0.7829      2.00000
     78      -0.7732      2.00000
     79      -0.7561      2.00000
     80      -0.7088      2.00000
     81      -0.6755      2.00000
     82      -0.6651      2.00000
     83      -0.6262      2.00000
     84      -0.6153      2.00000
     85      -0.6012      2.00000
     86      -0.5823      2.00000
     87      -0.5520      2.00000
     88      -0.5240      2.00000
     89      -0.5121      2.00000
     90      -0.4769      2.00000
     91      -0.4476      2.00000
     92      -0.4394      2.00000
     93      -0.4246      2.00000
     94      -0.3818      2.00000
     95      -0.3707      2.00000
     96      -0.3418      2.00000
     97      -0.3234      2.00000
     98      -0.3176      2.00000
     99      -0.2932      2.00000
    100      -0.2879      2.00000
    101      -0.2574      2.00000
    102      -0.2372      2.00000
    103      -0.2325      2.00000
    104      -0.1998      2.00000
    105      -0.1769      2.00000
    106      -0.1711      2.00000
    107      -0.1449      2.00000
    108      -0.1232      2.00000
    109      -0.0945      2.00000
    110      -0.0840      2.00000
    111      -0.0311      2.00000
    112      -0.0106      2.00000
    113       0.1064      2.00000
    114       0.1541      2.00000
    115       0.1961      2.00000
    116       0.2042      2.00000
    117       0.2090      2.00000
    118       0.2361      2.00000
    119       0.2611      2.00000
    120       0.2737      2.00000
    121       0.2778      2.00000
    122       0.3188      2.00000
    123       0.3843      2.00000
    124       0.4213      2.00000
    125       0.4284      2.00000
    126       0.4422      2.00000
    127       0.5106      2.00000
    128       0.5431      2.00000
    129       0.5491      2.00000
    130       0.5513      2.00000
    131       0.5643      2.00000
    132       0.5754      2.00000
    133       0.6158      2.00000
    134       0.6687      2.00000
    135       0.7207      2.00000
    136       0.7361      2.00000
    137       0.7421      2.00000
    138       0.7433      2.00000
    139       0.7548      2.00000
    140       0.8066      2.00000
    141       0.8083      2.00000
    142       0.8242      2.00000
    143       0.8484      2.00000
    144       0.8663      2.00000
    145       0.8736      2.00000
    146       0.9150      2.00000
    147       0.9659      2.00000
    148       0.9938      2.00000
    149       1.0193      2.00000
    150       1.0550      2.00000
    151       1.0912      2.00000
    152       1.1176      2.00000
    153       1.1318      2.00000
    154       1.1796      2.00000
    155       1.1954      2.00000
    156       1.2002      2.00000
    157       1.2246      2.00000
    158       1.2347      2.00000
    159       1.2724      2.00000
    160       1.3396      2.00000
    161       1.3856      2.00000
    162       1.4308      2.00000
    163       1.4979      2.00000
    164       1.5267      2.00000
    165       1.5717      2.00000
    166       1.5872      2.00000
    167       1.6075      2.00000
    168       1.6360      2.00000
    169       1.7904      2.00000
    170       1.7949      2.00000
    171       1.9115      2.00000
    172       1.9269      2.00000
    173       2.0366      2.00000
    174       2.0486      2.00000
    175       2.0641      2.00000
    176       2.0932      2.00000
    177       3.8703      0.00000
    178       4.0325      0.00000
    179       4.0409      0.00000
    180       4.1550      0.00000
    181       4.1909      0.00000
    182       4.3729      0.00000
    183       4.3765      0.00000
    184       4.4212      0.00000
    185       4.4491      0.00000
    186       4.4675      0.00000
    187       4.5413      0.00000
    188       4.5606      0.00000
    189       4.5861      0.00000
    190       4.5886      0.00000
    191       4.6310      0.00000
    192       4.6380      0.00000
    193       4.6654      0.00000
    194       4.7287      0.00000
    195       4.7567      0.00000
    196       4.7644      0.00000
    197       4.8302      0.00000
    198       4.8594      0.00000
    199       4.8645      0.00000
    200       4.9793      0.00000
    201       5.1066      0.00000
    202       5.3022      0.00000
    203       5.6048      0.00000
    204       5.7431      0.00000
    205       5.9545      0.00000
    206       5.9753      0.00000
    207       5.9863      0.00000
    208       6.0216      0.00000
    209       7.1838      0.00000
    210       7.2868      0.00000
    211       7.2992      0.00000

 k-point     2 :       0.2500    0.0000   -0.0000
  band No.  band energies     occupation 
      1     -10.8011      2.00000
      2     -10.6905      2.00000
      3     -10.6613      2.00000
      4     -10.5023      2.00000
      5     -10.4502      2.00000
      6     -10.2265      2.00000
      7     -10.1828      2.00000
      8     -10.0245      2.00000
      9      -9.8682      2.00000
     10      -9.8623      2.00000
     11      -9.8428      2.00000
     12      -9.8218      2.00000
     13      -9.8100      2.00000
     14      -9.7698      2.00000
     15      -9.7587      2.00000
     16      -9.7138      2.00000
     17      -9.6997      2.00000
     18      -9.6865      2.00000
     19      -9.6686      2.00000
     20      -9.6652      2.00000
     21      -9.6589      2.00000
     22      -9.6306      2.00000
     23      -9.6169      2.00000
     24      -9.6026      2.00000
     25      -9.5800      2.00000
     26      -9.5780      2.00000
     27      -9.5536      2.00000
     28      -9.5365      2.00000
     29      -9.5259      2.00000
     30      -9.5200      2.00000
     31      -9.5113      2.00000
     32      -9.4861      2.00000
     33      -8.1943      2.00000
     34      -8.0879      2.00000
     35      -8.0786      2.00000
     36      -7.8495      2.00000
     37      -7.8260      2.00000
     38      -7.6490      2.00000
     39      -7.5991      2.00000
     40      -7.5708      2.00000
     41      -1.7706      2.00000
     42      -1.7182      2.00000
     43      -1.6861      2.00000
     44      -1.6633      2.00000
     45      -1.6205      2.00000
     46      -1.5820      2.00000
     47      -1.5287      2.00000
     48      -1.5141      2.00000
     49      -1.4615      2.00000
     50      -1.4179      2.00000
     51      -1.3661      2.00000
     52      -1.3521      2.00000
     53      -1.3184      2.00000
     54      -1.2861      2.00000
     55      -1.2668      2.00000
     56      -1.2420      2.00000
     57      -1.1960      2.00000
     58      -1.1716      2.00000
     59      -1.1468      2.00000
     60      -1.0985      2.00000
     61      -1.0874      2.00000
     62      -1.0536      2.00000
     63      -1.0176      2.00000
     64      -1.0037      2.00000
     65      -0.9858      2.00000
     66      -0.9694      2.00000
     67      -0.9500      2.00000
     68      -0.9348      2.00000
     69      -0.9142      2.00000
     70      -0.9039      2.00000
     71      -0.8842      2.00000
     72      -0.8722      2.00000
     73      -0.8524      2.00000
     74      -0.8421      2.00000
     75      -0.8062      2.00000
     76      -0.7856      2.00000
     77      -0.7834      2.00000
     78      -0.7777      2.00000
     79      -0.7351      2.00000
     80      -0.7242      2.00000
     81      -0.6771      2.00000
     82      -0.6519      2.00000
     83      -0.6286      2.00000
     84      -0.6176      2.00000
     85      -0.5997      2.00000
     86      -0.5590      2.00000
     87      -0.5522      2.00000
     88      -0.5260      2.00000
     89      -0.4786      2.00000
     90      -0.4634      2.00000
     91      -0.4478      2.00000
     92      -0.4360      2.00000
     93      -0.4091      2.00000
     94      -0.3825      2.00000
     95      -0.3679      2.00000
     96      -0.3557      2.00000
     97      -0.3422      2.00000
     98      -0.3311      2.00000
     99      -0.3106      2.00000
    100      -0.2843      2.00000
    101      -0.2721      2.00000
    102      -0.2540      2.00000
    103      -0.1931      2.00000
    104      -0.1896      2.00000
    105      -0.1798      2.00000
    106      -0.1476      2.00000
    107      -0.1280      2.00000
    108      -0.1257      2.00000
    109      -0.1159      2.00000
    110      -0.0986      2.00000
    111      -0.0664      2.00000
    112      -0.0160      2.00000
    113       0.1100      2.00000
    114       0.1366      2.00000
    115       0.1621      2.00000
    116       0.1755      2.00000
    117       0.2082      2.00000
    118       0.2561      2.00000
    119       0.2736      2.00000
    120       0.2921      2.00000
    121       0.3104      2.00000
    122       0.3649      2.00000
    123       0.3795      2.00000
    124       0.3829      2.00000
    125       0.4435      2.00000
    126       0.4763      2.00000
    127       0.4980      2.00000
    128       0.5332      2.00000
    129       0.5526      2.00000
    130       0.5824      2.00000
    131       0.5951      2.00000
    132       0.6190      2.00000
    133       0.6272      2.00000
    134       0.6549      2.00000
    135       0.6778      2.00000
    136       0.7147      2.00000
    137       0.7275      2.00000
    138       0.7465      2.00000
    139       0.7827      2.00000
    140       0.7906      2.00000
    141       0.8021      2.00000
    142       0.8425      2.00000
    143       0.8468      2.00000
    144       0.8618      2.00000
    145       0.8907      2.00000
    146       0.9233      2.00000
    147       1.0001      2.00000
    148       1.0172      2.00000
    149       1.0204      2.00000
    150       1.0376      2.00000
    151       1.0491      2.00000
    152       1.1087      2.00000
    153       1.1551      2.00000
    154       1.1780      2.00000
    155       1.1821      2.00000
    156       1.1878      2.00000
    157       1.2182      2.00000
    158       1.2415      2.00000
    159       1.2761      2.00000
    160       1.3297      2.00000
    161       1.3838      2.00000
    162       1.4445      2.00000
    163       1.5058      2.00000
    164       1.5201      2.00000
    165       1.5622      2.00000
    166       1.5882      2.00000
    167       1.6343      2.00000
    168       1.6594      2.00000
    169       1.7839      2.00000
    170       1.7986      2.00000
    171       1.8879      2.00000
    172       1.9128      2.00000
    173       2.0054      2.00000
    174       2.0112      2.00000
    175       2.0429      2.00000
    176       2.0543      2.00000
    177       3.9309      0.00000
    178       4.0222      0.00000
    179       4.0637      0.00000
    180       4.1746      0.00000
    181       4.1949      0.00000
    182       4.3305      0.00000
    183       4.3518      0.00000
    184       4.4228      0.00000
    185       4.4546      0.00000
    186       4.4771      0.00000
    187       4.4967      0.00000
    188       4.5345      0.00000
    189       4.6058      0.00000
    190       4.6119      0.00000
    191       4.6279      0.00000
    192       4.6514      0.00000
    193       4.6765      0.00000
    194       4.6832      0.00000
    195       4.7243      0.00000
    196       4.7896      0.00000
    197       4.8111      0.00000
    198       4.8560      0.00000
    199       4.8872      0.00000
    200       4.9588      0.00000
    201       5.2341      0.00000
    202       5.3869      0.00000
    203       5.6153      0.00000
    204       5.7563      0.00000
    205       5.8501      0.00000
    206       5.8692      0.00000
    207       5.9904      0.00000
    208       6.0040      0.00000
    209       7.2968      0.00000
    210       7.3294      0.00000
    211       7.3980      0.00000

 k-point     3 :       0.5000    0.0000   -0.0000
  band No.  band energies     occupation 
      1     -10.7763      2.00000
      2     -10.7168      2.00000
      3     -10.6695      2.00000
      4     -10.5007      2.00000
      5     -10.4470      2.00000
      6     -10.2269      2.00000
      7     -10.1697      2.00000
      8     -10.0346      2.00000
      9      -9.8729      2.00000
     10      -9.8694      2.00000
     11      -9.8468      2.00000
     12      -9.8227      2.00000
     13      -9.8129      2.00000
     14      -9.7583      2.00000
     15      -9.7410      2.00000
     16      -9.7158      2.00000
     17      -9.7065      2.00000
     18      -9.6819      2.00000
     19      -9.6718      2.00000
     20      -9.6650      2.00000
     21      -9.6422      2.00000
     22      -9.6390      2.00000
     23      -9.6130      2.00000
     24      -9.5923      2.00000
     25      -9.5868      2.00000
     26      -9.5833      2.00000
     27      -9.5511      2.00000
     28      -9.5458      2.00000
     29      -9.5225      2.00000
     30      -9.5199      2.00000
     31      -9.5044      2.00000
     32      -9.4987      2.00000
     33      -8.1995      2.00000
     34      -8.0870      2.00000
     35      -8.0758      2.00000
     36      -7.8492      2.00000
     37      -7.8261      2.00000
     38      -7.6657      2.00000
     39      -7.5966      2.00000
     40      -7.5567      2.00000
     41      -1.7330      2.00000
     42      -1.7135      2.00000
     43      -1.6663      2.00000
     44      -1.6450      2.00000
     45      -1.6314      2.00000
     46      -1.6127      2.00000
     47      -1.5616      2.00000
     48      -1.5409      2.00000
     49      -1.4875      2.00000
     50      -1.4171      2.00000
     51      -1.3896      2.00000
     52      -1.3521      2.00000
     53      -1.2814      2.00000
     54      -1.2779      2.00000
     55      -1.2555      2.00000
     56      -1.2217      2.00000
     57      -1.2121      2.00000
     58      -1.1595      2.00000
     59      -1.1490      2.00000
     60      -1.1287      2.00000
     61      -1.1210      2.00000
     62      -1.0714      2.00000
     63      -1.0146      2.00000
     64      -0.9866      2.00000
     65      -0.9834      2.00000
     66      -0.9618      2.00000
     67      -0.9352      2.00000
     68      -0.9303      2.00000
     69      -0.9117      2.00000
     70      -0.9072      2.00000
     71      -0.8965      2.00000
     72      -0.8726      2.00000
     73      -0.8376      2.00000
     74      -0.8262      2.00000
     75      -0.8115      2.00000
     76      -0.8016      2.00000
     77      -0.7785      2.00000
     78      -0.7756      2.00000
     79      -0.7523      2.00000
     80      -0.7366      2.00000
     81      -0.6661      2.00000
     82      -0.6430      2.00000
     83      -0.6266      2.00000
     84      -0.6029      2.00000
     85      -0.5994      2.00000
     86      -0.5639      2.00000
     87      -0.5413      2.00000
     88      -0.4861      2.00000
     89      -0.4792      2.00000
     90      -0.4719      2.00000
     91      -0.4559      2.00000
     92      -0.4377      2.00000
     93      -0.3959      2.00000
     94      -0.3915      2.00000
     95      -0.3743      2.00000
     96      -0.3525      2.00000
     97      -0.3260      2.00000
     98      -0.3172      2.00000
     99      -0.3099      2.00000
    100      -0.3011      2.00000
    101      -0.2782      2.00000
    102      -0.2726      2.00000
    103      -0.2002      2.00000
    104      -0.1751      2.00000
    105      -0.1591      2.00000
    106      -0.1453      2.00000
    107      -0.1341      2.00000
    108      -0.1299      2.00000
    109      -0.1146      2.00000
    110      -0.0866      2.00000
    111      -0.0861      2.00000
    112      -0.0226      2.00000
    113       0.0685      2.00000
    114       0.0802      2.00000
    115       0.1268      2.00000
    116       0.1701      2.00000
    117       0.2065      2.00000
    118       0.2367      2.00000
    119       0.2888      2.00000
    120       0.3187      2.00000
    121       0.3442      2.00000
    122       0.4141      2.00000
    123       0.4289      2.00000
    124       0.4478      2.00000
    125       0.4741      2.00000
    126       0.4898      2.00000
    127       0.5158      2.00000
    128       0.5412      2.00000
    129       0.5560      2.00000
    130       0.5694      2.00000
    131       0.5805      2.00000
    132       0.6015      2.00000
    133       0.6065      2.00000
    134       0.6648      2.00000
    135       0.6710      2.00000
    136       0.6762      2.00000
    137       0.7371      2.00000
    138       0.7526      2.00000
    139       0.7742      2.00000
    140       0.7872      2.00000
    141       0.7955      2.00000
    142       0.8255      2.00000
    143       0.8457      2.00000
    144       0.9009      2.00000
    145       0.9066      2.00000
    146       0.9458      2.00000
    147       0.9606      2.00000
    148       1.0000      2.00000
    149       1.0315      2.00000
    150       1.0639      2.00000
    151       1.0933      2.00000
    152       1.0955      2.00000
    153       1.1192      2.00000
    154       1.1204      2.00000
    155       1.1798      2.00000
    156       1.1917      2.00000
    157       1.2205      2.00000
    158       1.2659      2.00000
    159       1.2815      2.00000
    160       1.3084      2.00000
    161       1.4218      2.00000
    162       1.4454      2.00000
    163       1.4867      2.00000
    164       1.5077      2.00000
    165       1.6121      2.00000
    166       1.6226      2.00000
    167       1.6407      2.00000
[...]
    143       0.8785      2.00000
    144       0.8828      2.00000
    145       0.9501      2.00000
    146       0.9515      2.00000
    147       1.0437      2.00000
    148       1.0467      2.00000
    149       1.0688      2.00000
    150       1.0722      2.00000
    151       1.1044      2.00000
    152       1.1066      2.00000
    153       1.1271      2.00000
    154       1.1324      2.00000
    155       1.1947      2.00000
    156       1.1953      2.00000
    157       1.2399      2.00000
    158       1.2426      2.00000
    159       1.2961      2.00000
    160       1.2975      2.00000
    161       1.4823      2.00000
    162       1.4860      2.00000
    163       1.6073      2.00000
    164       1.6154      2.00000
    165       1.6230      2.00000
    166       1.6269      2.00000
    167       1.7114      2.00000
    168       1.7180      2.00000
    169       1.7845      2.00000
    170       1.7865      2.00000
    171       1.8680      2.00000
    172       1.8751      2.00000
    173       1.8993      2.00000
    174       1.9050      2.00000
    175       2.0194      2.00000
    176       2.0216      2.00000
    177       3.8384      0.00000
    178       3.8442      0.00000
    179       4.0208      0.00000
    180       4.0250      0.00000
    181       4.1327      0.00000
    182       4.1338      0.00000
    183       4.2832      0.00000
    184       4.2863      0.00000
    185       4.3524      0.00000
    186       4.3558      0.00000
    187       4.4556      0.00000
    188       4.4574      0.00000
    189       4.6315      0.00000
    190       4.6356      0.00000
    191       4.7081      0.00000
    192       4.7088      0.00000
    193       4.7987      0.00000
    194       4.8018      0.00000
    195       4.8484      0.00000
    196       4.8508      0.00000
    197       4.9152      0.00000
    198       4.9197      0.00000
    199       5.0433      0.00000
    200       5.0453      0.00000
    201       5.5893      0.00000
    202       5.5912      0.00000
    203       5.6307      0.00000
    204       5.6322      0.00000
    205       5.6609      0.00000
    206       5.6648      0.00000
    207       5.8190      0.00000
    208       5.8221      0.00000
    209       7.3489      0.00000
    210       7.3563      0.00000
    211       7.5245      0.00000

 k-point    36 :       0.5000    0.5000    0.5000
  band No.  band energies     occupation 
      1     -10.7418      2.00000
      2     -10.7368      2.00000
      3     -10.6127      2.00000
      4     -10.6112      2.00000
      5     -10.3563      2.00000
      6     -10.3560      2.00000
      7     -10.0907      2.00000
      8     -10.0852      2.00000
      9      -9.8813      2.00000
     10      -9.8747      2.00000
     11      -9.7904      2.00000
     12      -9.7821      2.00000
     13      -9.7620      2.00000
     14      -9.7591      2.00000
     15      -9.7218      2.00000
     16      -9.7181      2.00000
     17      -9.6993      2.00000
     18      -9.6944      2.00000
     19      -9.6739      2.00000
     20      -9.6722      2.00000
     21      -9.6681      2.00000
     22      -9.6668      2.00000
     23      -9.6057      2.00000
     24      -9.6043      2.00000
     25      -9.5849      2.00000
     26      -9.5830      2.00000
     27      -9.5554      2.00000
     28      -9.5547      2.00000
     29      -9.5204      2.00000
     30      -9.5189      2.00000
     31      -9.5105      2.00000
     32      -9.5093      2.00000
     33      -8.1662      2.00000
     34      -8.1651      2.00000
     35      -7.9732      2.00000
     36      -7.9721      2.00000
     37      -7.7352      2.00000
     38      -7.7327      2.00000
     39      -7.5596      2.00000
     40      -7.5549      2.00000
     41      -1.7554      2.00000
     42      -1.7485      2.00000
     43      -1.6501      2.00000
     44      -1.6486      2.00000
     45      -1.6045      2.00000
     46      -1.6033      2.00000
     47      -1.5138      2.00000
     48      -1.5098      2.00000
     49      -1.4583      2.00000
     50      -1.4555      2.00000
     51      -1.4323      2.00000
     52      -1.4255      2.00000
     53      -1.3499      2.00000
     54      -1.3479      2.00000
     55      -1.2574      2.00000
     56      -1.2534      2.00000
     57      -1.2395      2.00000
     58      -1.2335      2.00000
     59      -1.1128      2.00000
     60      -1.1093      2.00000
     61      -1.0155      2.00000
     62      -1.0120      2.00000
     63      -0.9831      2.00000
     64      -0.9748      2.00000
     65      -0.9641      2.00000
     66      -0.9633      2.00000
     67      -0.9387      2.00000
     68      -0.9321      2.00000
     69      -0.8864      2.00000
     70      -0.8796      2.00000
     71      -0.8539      2.00000
     72      -0.8493      2.00000
     73      -0.8376      2.00000
     74      -0.8352      2.00000
     75      -0.8124      2.00000
     76      -0.8093      2.00000
     77      -0.8035      2.00000
     78      -0.7955      2.00000
     79      -0.7143      2.00000
     80      -0.7111      2.00000
     81      -0.6645      2.00000
     82      -0.6609      2.00000
     83      -0.5975      2.00000
     84      -0.5931      2.00000
     85      -0.5640      2.00000
     86      -0.5587      2.00000
     87      -0.5209      2.00000
     88      -0.5176      2.00000
     89      -0.4851      2.00000
     90      -0.4843      2.00000
     91      -0.4469      2.00000
     92      -0.4462      2.00000
     93      -0.3705      2.00000
     94      -0.3673      2.00000
     95      -0.3533      2.00000
     96      -0.3495      2.00000
     97      -0.3269      2.00000
     98      -0.3235      2.00000
     99      -0.2820      2.00000
    100      -0.2808      2.00000
    101      -0.2762      2.00000
    102      -0.2754      2.00000
    103      -0.2257      2.00000
    104      -0.2229      2.00000
    105      -0.1808      2.00000
    106      -0.1794      2.00000
    107      -0.1528      2.00000
    108      -0.1501      2.00000
    109      -0.1119      2.00000
    110      -0.1103      2.00000
    111      -0.0511      2.00000
    112      -0.0455      2.00000
    113       0.0623      2.00000
    114       0.0657      2.00000
    115       0.1719      2.00000
    116       0.1742      2.00000
    117       0.2585      2.00000
    118       0.2604      2.00000
    119       0.3131      2.00000
    120       0.3178      2.00000
    121       0.3906      2.00000
    122       0.3933      2.00000
    123       0.3963      2.00000
    124       0.3990      2.00000
    125       0.4435      2.00000
    126       0.4481      2.00000
    127       0.4794      2.00000
    128       0.4825      2.00000
    129       0.5390      2.00000
    130       0.5447      2.00000
    131       0.5783      2.00000
    132       0.5816      2.00000
    133       0.5999      2.00000
    134       0.6075      2.00000
    135       0.6327      2.00000
    136       0.6345      2.00000
    137       0.6994      2.00000
    138       0.7041      2.00000
    139       0.7274      2.00000
    140       0.7319      2.00000
    141       0.7657      2.00000
    142       0.7673      2.00000
    143       0.9052      2.00000
    144       0.9100      2.00000
    145       0.9387      2.00000
    146       0.9391      2.00000
    147       1.0612      2.00000
    148       1.0667      2.00000
    149       1.0828      2.00000
    150       1.0857      2.00000
    151       1.1028      2.00000
    152       1.1066      2.00000
    153       1.1198      2.00000
    154       1.1249      2.00000
    155       1.2043      2.00000
    156       1.2052      2.00000
    157       1.2353      2.00000
    158       1.2379      2.00000
    159       1.2986      2.00000
    160       1.3004      2.00000
    161       1.5143      2.00000
    162       1.5193      2.00000
    163       1.6103      2.00000
    164       1.6163      2.00000
    165       1.6207      2.00000
    166       1.6240      2.00000
    167       1.7276      2.00000
    168       1.7355      2.00000
    169       1.8020      2.00000
    170       1.8059      2.00000
    171       1.8703      2.00000
    172       1.8789      2.00000
    173       1.8955      2.00000
    174       1.9009      2.00000
    175       2.0569      2.00000
    176       2.0599      2.00000
    177       3.7383      0.00000
    178       3.7443      0.00000
    179       3.9429      0.00000
    180       3.9472      0.00000
    181       4.0723      0.00000
    182       4.0741      0.00000
    183       4.2573      0.00000
    184       4.2593      0.00000
    185       4.3461      0.00000
    186       4.3493      0.00000
    187       4.4524      0.00000
    188       4.4550      0.00000
    189       4.6456      0.00000
    190       4.6503      0.00000
    191       4.7318      0.00000
    192       4.7336      0.00000
    193       4.8481      0.00000
    194       4.8516      0.00000
    195       4.8790      0.00000
    196       4.8809      0.00000
    197       4.9838      0.00000
    198       4.9858      0.00000
    199       5.0565      0.00000
    200       5.0632      0.00000
    201       5.5752      0.00000
    202       5.5770      0.00000
    203       5.6017      0.00000
    204       5.6065      0.00000
    205       5.6279      0.00000
    206       5.6326      0.00000
    207       5.8330      0.00000
    208       5.8352      0.00000
    209       7.2671      0.00000
    210       7.2733      0.00000
    211       7.5400      0.00000


--------------------------------------------------------------------------------------------------------


 soft charge-density along one line, spin component           1
         0         1         2         3         4         5         6         7         8         9
 total charge-density along one line
 
 pseudopotential strength for first ion, spin component:           1
 -6.442  -0.000  -0.002   0.000  -0.000  -6.578  -0.000  -0.002
 -0.000  -6.440   0.001   0.001   0.000  -0.000  -6.575   0.001
 -0.002   0.001  -6.428   0.000  -0.004  -0.002   0.001  -6.563
  0.000   0.001   0.000  -6.434  -0.000   0.000   0.001   0.000
 -0.000   0.000  -0.004  -0.000  -6.435  -0.000   0.000  -0.004
 -6.578  -0.000  -0.002   0.000  -0.000  -6.682  -0.000  -0.001
 -0.000  -6.575   0.001   0.001   0.000  -0.000  -6.679   0.001
 -0.002   0.001  -6.563   0.000  -0.004  -0.001   0.001  -6.668
  0.000   0.001   0.000  -6.570  -0.000   0.000   0.001   0.000
 -0.000   0.000  -0.004  -0.000  -6.570  -0.000   0.000  -0.004
  0.001   0.000  -0.001   0.000   0.000   0.001   0.000  -0.001
  0.001   0.000  -0.001   0.001   0.001   0.001   0.000  -0.001
  0.006   0.001   0.004   0.000   0.007   0.006   0.001   0.004
  0.000  -0.006   0.001   0.006  -0.000   0.000  -0.006   0.001
 -0.006   0.000  -0.004   0.001   0.007  -0.006   0.000  -0.004
  0.008   0.002   0.005   0.000   0.009   0.008   0.002   0.005
  0.000  -0.008   0.002   0.008  -0.000   0.000  -0.007   0.002
 -0.008   0.000  -0.005   0.001   0.008  -0.007   0.000  -0.005
 total augmentation occupancy for first ion, spin component:           1
  2.293  -0.003  -0.134   0.007   0.004  -0.317  -0.001   0.133  -0.010  -0.005  -0.143   0.024  -0.029   0.001   0.065   0.005
 -0.003   2.295   0.155   0.006   0.019  -0.001  -0.298  -0.140  -0.012  -0.012  -0.059   0.013   0.011   0.041  -0.000   0.000
 -0.134   0.155   4.162   0.048  -0.226   0.133  -0.140  -1.990  -0.045   0.216   0.007  -0.009   0.099   0.011  -0.073  -0.004
  0.007   0.006   0.048   2.278   0.035  -0.010  -0.012  -0.045  -0.299  -0.038  -0.066   0.014   0.004  -0.023   0.002  -0.000
  0.004   0.019  -0.226   0.035   3.993  -0.005  -0.012   0.216  -0.038  -1.848  -0.201   0.028   0.194  -0.010   0.114  -0.008
 -0.317  -0.001   0.133  -0.010  -0.005   0.321   0.004  -0.132   0.012   0.006   0.130  -0.027   0.019  -0.001  -0.049  -0.001
 -0.001  -0.298  -0.140  -0.012  -0.012   0.004   0.285   0.127   0.017   0.006   0.053  -0.013  -0.012  -0.029  -0.000   0.001
  0.133  -0.140  -1.990  -0.045   0.216  -0.132   0.127   1.821   0.042  -0.206  -0.003   0.003  -0.090  -0.011   0.068   0.006
 -0.010  -0.012  -0.045  -0.299  -0.038   0.012   0.017   0.042   0.302   0.040   0.057  -0.014  -0.003   0.014  -0.003   0.000
 -0.005  -0.012   0.216  -0.038  -1.848   0.006   0.006  -0.206   0.040   1.703   0.176  -0.032  -0.176   0.008  -0.107   0.011
 -0.143  -0.059   0.007  -0.066  -0.201   0.130   0.053  -0.003   0.057   0.176   1.438  -0.307   0.048  -0.010  -0.045  -0.005
  0.024   0.013  -0.009   0.014   0.028  -0.027  -0.013   0.003  -0.014  -0.032  -0.307   0.070  -0.011   0.002   0.009   0.001
 -0.029   0.011   0.099   0.004   0.194   0.019  -0.012  -0.090  -0.003  -0.176   0.048  -0.011   0.079   0.003   0.009  -0.005
  0.001   0.041   0.011  -0.023  -0.010  -0.001  -0.029  -0.011   0.014   0.008  -0.010   0.002   0.003   0.090   0.003  -0.000
  0.065  -0.000  -0.073   0.002   0.114  -0.049  -0.000   0.068  -0.003  -0.107  -0.045   0.009   0.009   0.003   0.100  -0.001
  0.005   0.000  -0.004  -0.000  -0.008  -0.001   0.001   0.006   0.000   0.011  -0.005   0.001  -0.005  -0.000  -0.001   0.000
 -0.000  -0.005  -0.000   0.004   0.000   0.000   0.002   0.001  -0.001  -0.000   0.001  -0.000  -0.000  -0.006  -0.000   0.000
 -0.006  -0.000   0.002   0.000  -0.003   0.003   0.000  -0.004   0.000   0.007   0.004  -0.001  -0.001  -0.000  -0.007   0.000


------------------------ aborting loop because EDIFF is reached ----------------------------------------


 


 total charge     
 
# of ion       s       p       d       tot
------------------------------------------
    1        0.241   0.152   9.320   9.713
    2        0.238   0.147   9.323   9.709
    3        0.252   0.157   9.313   9.722
    4        0.241   0.152   9.320   9.713
    5        0.238   0.147   9.323   9.708
    6        0.241   0.151   9.320   9.712
    7        0.241   0.151   9.320   9.713
    8        0.252   0.158   9.313   9.723
    9        1.834   1.401   0.138   3.373
   10        1.835   1.397   0.139   3.371
   11        1.833   1.401   0.135   3.369
   12        1.834   1.401   0.138   3.373
   13        1.833   1.401   0.135   3.369
   14        1.834   1.401   0.138   3.373
   15        1.835   1.397   0.139   3.371
   16        1.834   1.401   0.138   3.373
   17        1.518   2.745   0.012   4.275
   18        1.514   2.743   0.015   4.272
   19        1.516   2.744   0.015   4.274
   20        1.515   2.743   0.015   4.272
   21        1.513   2.747   0.016   4.276
   22        1.516   2.743   0.015   4.274
   23        1.513   2.748   0.016   4.276
   24        1.517   2.745   0.013   4.275
   25        1.514   2.742   0.017   4.274
   26        1.518   2.742   0.011   4.271
   27        1.518   2.742   0.012   4.272
   28        1.518   2.742   0.011   4.271
   29        1.518   2.742   0.013   4.273
   30        1.518   2.742   0.012   4.272
   31        1.518   2.742   0.012   4.273
   32        1.514   2.742   0.017   4.274
   33        1.514   2.743   0.015   4.272
   34        1.516   2.743   0.015   4.274
   35        1.514   2.743   0.015   4.272
   36        1.517   2.745   0.013   4.275
   37        1.517   2.745   0.012   4.275
   38        1.513   2.747   0.016   4.276
   39        1.516   2.744   0.015   4.274
   40        1.513   2.747   0.016   4.276
   41        1.518   2.742   0.011   4.271
   42        1.519   2.742   0.012   4.272
   43        1.518   2.742   0.011   4.271
   44        1.514   2.742   0.017   4.274
   45        1.514   2.742   0.017   4.273
   46        1.518   2.742   0.013   4.273
   47        1.518   2.742   0.012   4.272
   48        1.518   2.743   0.012   4.273
--------------------------------------------------
tot         65.134 100.207  76.094 241.435
 


--------------------------------------------------------------------------------------------------------



  FREE ENERGIE OF THE ION-ELECTRON SYSTEM (eV)
  ---------------------------------------------------
  free  energy   TOTEN  =      -119.96597273 eV

  energy  without entropy=     -119.96597273  energy(sigma->0) =     -119.96597273
 


--------------------------------------------------------------------------------------------------------




--------------------------------------------------------------------------------------------------------


 writing wavefunctions
     LOOP+:  cpu time  112.5419: real time  112.6245
    4ORBIT:  cpu time    0.0000: real time    0.0000
 


 total charge     
 
# of ion       s       p       d       tot
------------------------------------------
    1        0.241   0.152   9.320   9.713
    2        0.238   0.147   9.323   9.709
    3        0.252   0.157   9.313   9.722
    4        0.241   0.152   9.320   9.713
    5        0.238   0.147   9.323   9.708
    6        0.241   0.151   9.320   9.712
    7        0.241   0.151   9.320   9.713
    8        0.252   0.158   9.313   9.723
    9        1.834   1.401   0.138   3.373
   10        1.835   1.397   0.139   3.371
   11        1.833   1.401   0.135   3.369
   12        1.834   1.401   0.138   3.373
   13        1.833   1.401   0.135   3.369
   14        1.834   1.401   0.138   3.373
   15        1.835   1.397   0.139   3.371
   16        1.834   1.401   0.138   3.373
   17        1.518   2.745   0.012   4.275
   18        1.514   2.743   0.015   4.272
   19        1.516   2.744   0.015   4.274
   20        1.515   2.743   0.015   4.272
   21        1.513   2.747   0.016   4.276
   22        1.516   2.743   0.015   4.274
   23        1.513   2.748   0.016   4.276
   24        1.517   2.745   0.013   4.275
   25        1.514   2.742   0.017   4.274
   26        1.518   2.742   0.011   4.271
   27        1.518   2.742   0.012   4.272
   28        1.518   2.742   0.011   4.271
   29        1.518   2.742   0.013   4.273
   30        1.518   2.742   0.012   4.272
   31        1.518   2.742   0.012   4.273
   32        1.514   2.742   0.017   4.274
   33        1.514   2.743   0.015   4.272
   34        1.516   2.743   0.015   4.274
   35        1.514   2.743   0.015   4.272
   36        1.517   2.745   0.013   4.275
   37        1.517   2.745   0.012   4.275
   38        1.513   2.747   0.016   4.276
   39        1.516   2.744   0.015   4.274
   40        1.513   2.747   0.016   4.276
   41        1.518   2.742   0.011   4.271
   42        1.519   2.742   0.012   4.272
   43        1.518   2.742   0.011   4.271
   44        1.514   2.742   0.017   4.274
   45        1.514   2.742   0.017   4.273
   46        1.518   2.742   0.013   4.273
   47        1.518   2.742   0.012   4.272
   48        1.518   2.743   0.012   4.273
--------------------------------------------------
tot         65.134 100.207  76.094 241.435
 
 BZINTS: Fermi energy:    2.093259;  352.000000 electrons
         Band energy:-0.747563E+03;  BLOECHL correction:    0.000000

 total amount of memory used by VASP MPI-rank0  2762089. kBytes
=======================================================================

   base      :      30000. kBytes
   nonl-proj :     301397. kBytes
   fftplans  :      34720. kBytes
   grid      :      70000. kBytes
   one-center:        746. kBytes
   wavefun   :    2325226. kBytes
 
  
  
 General timing and accounting informations for this job:
 ========================================================
  
                  Total CPU time used (sec):      153.149
                            User time (sec):      147.482
                          System time (sec):        5.667
                         Elapsed time (sec):      156.787
  
                   Maximum memory used (kb):     4316192.
                   Average memory used (kb):           0.
  
                          Minor page faults:       428268
                          Major page faults:            0
                 Voluntary context switches:         2511
