 vasp.6.1.0 28Jan20 (build Jan 13 2021 21:44:47) complex                        
  
 executed on             LinuxIFC date 2021.09.12  19:38:25
 running on    9 total cores
 distrk:  each k-point on    1 cores,    9 groups
 distr:  one band on NCORE=   1 cores,    1 groups


--------------------------------------------------------------------------------------------------------


 INCAR:
 POTCAR:    PAW_PBE Ag 02Apr2005                  
 POTCAR:    PAW_PBE Bi 08Apr2002                  
 POTCAR:    PAW_PBE I 08Apr2002                   
 -----------------------------------------------------------------------------
|                                                                             |
|           W    W    AA    RRRRR   N    N  II  N    N   GGGG   !!!           |
|           W    W   A  A   R    R  NN   N  II  NN   N  G    G  !!!           |
|           W    W  A    A  R    R  N N  N  II  N N  N  G       !!!           |
|           W WW W  AAAAAA  RRRRR   N  N N  II  N  N N  G  GGG   !            |
|           WW  WW  A    A  R   R   N   NN  II  N   NN  G    G                |
|           W    W  A    A  R    R  N    N  II  N    N   GGGG   !!!           |
|                                                                             |
|     For optimal performance we recommend to set                             |
|       NCORE = 4 - approx SQRT(number of cores).                             |
|     NCORE specifies how many cores store one orbital (NPAR=cpu/NCORE).      |
|     This setting can greatly improve the performance of VASP for DFT.       |
|     The default, NCORE=1 might be grossly inefficient on modern             |
|     multi-core architectures or massively parallel machines. Do your        |
|     own testing!!!!                                                         |
|     Unfortunately you need to use the default for GW and RPA                |
|     calculations (for HF NCORE is supported but not extensively tested      |
|     yet).                                                                   |
|                                                                             |
 -----------------------------------------------------------------------------

 POTCAR:    PAW_PBE Ag 02Apr2005                  
   VRHFIN =Ag : s1 d10                                                                              
   LEXCH  = PE                                                                                      
   EATOM  =  1037.2675 eV,   76.2370 Ry                                                             
                                                                                                    
   TITEL  = PAW_PBE Ag 02Apr2005                                                                    
   LULTRA =        F    use ultrasoft PP ?                                                          
   IUNSCR =        1    unscreen: 0-lin 1-nonlin 2-no                                               
   RPACOR =    2.000    partial core radius                                                         
   POMASS =  107.868; ZVAL   =   11.000    mass and valenz                                          
   RCORE  =    2.500    outmost cutoff radius                                                       
   RWIGS  =    2.840; RWIGS  =    1.503    wigner-seitz radius (au A)                               
   ENMAX  =  249.844; ENMIN  =  187.383 eV                                                          
   ICORE  =        3    local potential                                                             
   LCOR   =        T    correct aug charges                                                         
   LPAW   =        T    paw PP                                                                      
   EAUG   =  412.496                                                                                
   DEXC   =    0.000                                                                                
   RMAX   =    2.560    core radius for proj-oper                                                   
   RAUG   =    1.300    factor for augmentation sphere                                              
   RDEP   =    2.576    radius for radial grids                                                     
   RDEPT  =    2.072    core radius for aug-charge                                                  
                                                                                                    
   Atomic configuration                                                                             
   12 entries                                                                                       
     n  l   j            E        occ.                                                              
     1  0  0.50    -25324.9161   2.0000                                                             
     2  0  0.50     -3728.5341   2.0000                                                             
     2  1  1.50     -3344.0404   6.0000                                                             
     3  0  0.50      -683.5581   2.0000                                                             
     3  1  1.50      -557.3225   6.0000                                                             
     3  2  2.50      -358.3853  10.0000                                                             
     4  0  0.50       -95.0341   2.0000                                                             
     4  1  1.50       -58.5511   6.0000                                                             
     4  2  2.50        -7.4440  10.0000                                                             
     5  0  0.50        -4.4045   1.0000                                                             
     5  1  0.50        -1.3606   0.0000                                                             
     4  3  2.50        -1.3606   0.0000                                                             
   Description                                                                                      
     l       E           TYP  RCUT    TYP  RCUT                                                     
     2     -7.4439781     23  2.400                                                                 
     2     -8.8045607     23  2.400                                                                 
     0     -4.4044681     23  2.400                                                                 
     0      1.9520038     23  2.400                                                                 
     1     -1.3605826     23  2.500                                                                 
     1     27.2116520     23  2.500                                                                 
     3     -4.0817478     23  2.400                                                                 
  local pseudopotential read in
  partial core-charges read in
  partial kinetic energy density read in
  atomic valenz-charges read in
  non local Contribution for L=           2  read in
    real space projection operators read in
  non local Contribution for L=           2  read in
    real space projection operators read in
  non local Contribution for L=           0  read in
    real space projection operators read in
  non local Contribution for L=           0  read in
    real space projection operators read in
  non local Contribution for L=           1  read in
    real space projection operators read in
  non local Contribution for L=           1  read in
    real space projection operators read in
    PAW grid and wavefunctions read in
 
   number of l-projection  operators is LMAX  =           6
   number of lm-projection operators is LMMAX =          18
 
 POTCAR:    PAW_PBE Bi 08Apr2002                  
   VRHFIN =Bi:                                                                                      
   LEXCH  = PE                                                                                      
   EATOM  =   150.8133 eV,   11.0845 Ry                                                             
                                                                                                    
   TITEL  = PAW_PBE Bi 08Apr2002                                                                    
   LULTRA =        F    use ultrasoft PP ?                                                          
   IUNSCR =        1    unscreen: 0-lin 1-nonlin 2-no                                               
   RPACOR =    2.200    partial core radius                                                         
   POMASS =  208.980; ZVAL   =    5.000    mass and valenz                                          
   RCORE  =    3.000    outmost cutoff radius                                                       
   RWIGS  =    3.090; RWIGS  =    1.635    wigner-seitz radius (au A)                               
   ENMAX  =  105.037; ENMIN  =   78.777 eV                                                          
   ICORE  =        3    local potential                                                             
   LCOR   =        T    correct aug charges                                                         
   LPAW   =        T    paw PP                                                                      
   EAUG   =  265.427                                                                                
   DEXC   =    0.000                                                                                
   RMAX   =    3.067    core radius for proj-oper                                                   
   RAUG   =    1.300    factor for augmentation sphere                                              
   RDEP   =    3.012    radius for radial grids                                                     
   RDEPT  =    2.604    core radius for aug-charge                                                  
                                                                                                    
   Atomic configuration                                                                             
   17 entries                                                                                       
     n  l   j            E        occ.                                                              
     1  0  0.50    -90639.6582   2.0000                                                             
     2  0  0.50    -16282.4667   2.0000                                                             
     2  1  1.50    -13922.8287   6.0000                                                             
     3  0  0.50     -3930.4763   2.0000                                                             
     3  1  1.50     -3256.7013   6.0000                                                             
     3  2  2.50     -2581.6169  10.0000                                                             
     4  0  0.50      -902.2614   2.0000                                                             
     4  1  1.50      -681.5915   6.0000                                                             
     4  2  2.50      -429.8249  10.0000                                                             
     4  3  3.50      -152.6004  14.0000                                                             
     5  0  0.50      -157.7156   2.0000                                                             
     5  1  1.50       -95.8054   6.0000                                                             
     5  2  2.50       -27.0806  10.0000                                                             
     6  0  0.50       -14.4732   2.0000                                                             
     6  1  1.50        -4.5702   3.0000                                                             
     6  2  2.50        -2.7212   0.0000                                                             
     5  3  2.50        -2.7212   0.0000                                                             
   Description                                                                                      
     l       E           TYP  RCUT    TYP  RCUT                                                     
     0    -14.4732299     23  3.000                                                                 
     0    -12.2452434     23  3.000                                                                 
     1     -4.5701666     23  3.000                                                                 
     1    -13.6058260     23  3.000                                                                 
     2     -2.7211652     23  3.000                                                                 
     3     -1.3605826      7  3.000                                                                 
  local pseudopotential read in
  partial core-charges read in
  partial kinetic energy density read in
  kinetic energy density of atom read in
  atomic valenz-charges read in
  non local Contribution for L=           0  read in
    real space projection operators read in
  non local Contribution for L=           0  read in
    real space projection operators read in
  non local Contribution for L=           1  read in
    real space projection operators read in
  non local Contribution for L=           1  read in
    real space projection operators read in
  non local Contribution for L=           2  read in
    real space projection operators read in
    PAW grid and wavefunctions read in
 
   number of l-projection  operators is LMAX  =           5
   number of lm-projection operators is LMMAX =          13
 
 POTCAR:    PAW_PBE I 08Apr2002                   
   VRHFIN =I : s2p5                                                                                 
   LEXCH  = PE                                                                                      
   EATOM  =   315.8678 eV,   23.2156 Ry                                                             
                                                                                                    
   TITEL  = PAW_PBE I 08Apr2002                                                                     
   LULTRA =        F    use ultrasoft PP ?                                                          
   IUNSCR =        1    unscreen: 0-lin 1-nonlin 2-no                                               
   RPACOR =    2.200    partial core radius                                                         
   POMASS =  126.904; ZVAL   =    7.000    mass and valenz                                          
   RCORE  =    2.300    outmost cutoff radius                                                       
   RWIGS  =    2.810; RWIGS  =    1.487    wigner-seitz radius (au A)                               
   ENMAX  =  175.647; ENMIN  =  131.735 eV                                                          
   ICORE  =        3    local potential                                                             
   LCOR   =        T    correct aug charges                                                         
   LPAW   =        T    paw PP                                                                      
   EAUG   =  370.139                                                                                
   DEXC   =    0.000                                                                                
   RMAX   =    2.359    core radius for proj-oper                                                   
   RAUG   =    1.300    factor for augmentation sphere                                              
   RDEP   =    2.392    radius for radial grids                                                     
   RDEPT  =    2.170    core radius for aug-charge                                                  
                                                                                                    
   Atomic configuration                                                                             
   13 entries                                                                                       
     n  l   j            E        occ.                                                              
     1  0  0.50    -32976.3739   2.0000                                                             
     2  0  0.50     -5094.5933   2.0000                                                             
     2  1  1.50     -4572.0131   6.0000                                                             
     3  0  0.50     -1028.2813   2.0000                                                             
     3  1  1.50      -859.0250   6.0000                                                             
     3  2  2.50      -605.7620  10.0000                                                             
     4  0  0.50      -180.5540   2.0000                                                             
     4  1  1.50      -127.5306   6.0000                                                             
     4  2  2.50       -50.2720  10.0000                                                             
     5  0  0.50       -17.4058   2.0000                                                             
     5  1  0.50        -7.0851   5.0000                                                             
     5  2  1.50        -7.0750   0.0000                                                             
     4  3  2.50        -7.0750   0.0000                                                             
   Description                                                                                      
     l       E           TYP  RCUT    TYP  RCUT                                                     
     0    -17.4058016     23  2.300                                                                 
     0    -18.7663842     23  2.300                                                                 
     1     -7.0850686     23  2.300                                                                 
     1     -4.2150896     23  2.300                                                                 
     2     -7.0750295     23  2.300                                                                 
     3     -1.3605826     23  2.300                                                                 
  local pseudopotential read in
  partial core-charges read in
  partial kinetic energy density read in
  atomic valenz-charges read in
  non local Contribution for L=           0  read in
    real space projection operators read in
  non local Contribution for L=           0  read in
    real space projection operators read in
  non local Contribution for L=           1  read in
    real space projection operators read in
  non local Contribution for L=           1  read in
    real space projection operators read in
  non local Contribution for L=           2  read in
    real space projection operators read in
    PAW grid and wavefunctions read in
 
   number of l-projection  operators is LMAX  =           5
   number of lm-projection operators is LMMAX =          13
 
 -----------------------------------------------------------------------------
|                                                                             |
|               ----> ADVICE to this user running VASP <----                  |
|                                                                             |
|     You have a (more or less) 'large supercell' and for larger cells it     |
|     might be more efficient to use real-space projection operators.         |
|     Therefore, try LREAL= Auto in the INCAR file.                           |
|     Mind: For very accurate calculation, you might also keep the            |
|     reciprocal projection scheme (i.e. LREAL=.FALSE.).                      |
|                                                                             |
 -----------------------------------------------------------------------------

  PAW_PBE Ag 02Apr2005                  :
 energy of atom  1       EATOM=-1037.2675
 kinetic energy error for atom=    0.0686 (will be added to EATOM!!)
  PAW_PBE Bi 08Apr2002                  :
 energy of atom  2       EATOM= -150.8133
 kinetic energy error for atom=    0.0004 (will be added to EATOM!!)
  PAW_PBE I 08Apr2002                   :
 energy of atom  3       EATOM= -315.8678
 kinetic energy error for atom=    0.0044 (will be added to EATOM!!)
 
 
 POSCAR: Generation Seed Number
  positions in direct lattice
  velocities in cartesian coordinates
 exchange correlation table for  LEXCH =        8
   RHO(1)=    0.500       N(1)  =     2000
   RHO(2)=  100.500       N(2)  =     4000
 


--------------------------------------------------------------------------------------------------------


 ion  position               nearest neighbor table
   1  0.260  0.255  0.023-  29 2.94  41 2.99  19 3.07  25 3.15  17 3.15  42 3.56
   2  0.503  0.498  0.997-  23 3.02  29 3.03  31 3.07  19 3.08  40 3.23  39 3.31
   3  0.745  0.740  0.977-  23 2.94  48 2.99  31 3.07  21 3.14  27 3.15  47 3.56
   4  0.988  0.496  0.523-  24 2.94  36 2.99  26 3.07  28 3.12  20 3.18  35 3.55
   5  0.976  0.724  0.750-  27 2.96  28 2.96  36 2.97  48 2.97
   6  0.275  0.024  0.251-  18 2.96  37 2.96  17 2.96  41 2.97
   7  0.505  0.010  0.477-  30 2.94  37 2.99  22 3.07  18 3.13  32 3.16  38 3.56
   8  0.747  0.253  0.503-  24 3.02  30 3.02  26 3.07  22 3.08  46 3.24  45 3.31
   9  0.003  0.997  0.000-  17 3.07  27 3.07  33 3.14  34 3.14  25 3.19  21 3.19
  10  0.001  0.251  0.254-  26 3.03  41 3.06  35 3.12  33 3.14  25 3.20  45 3.20
  11  0.749  0.998  0.747-  22 3.03  48 3.05  38 3.13  34 3.14  21 3.20  46 3.20
  12  0.749  0.499  0.250-  39 3.11  45 3.11  24 3.11  23 3.11  47 3.14  35 3.14
  13  0.501  0.751  0.246-  31 3.03  37 3.06  47 3.12  43 3.14  32 3.20  39 3.20
  14  0.500  0.250  0.750-  29 3.11  30 3.11  46 3.12  40 3.12  38 3.14  42 3.14
  15  0.248  0.498  0.753-  19 3.03  36 3.05  42 3.13  44 3.14  20 3.19  40 3.20
  16  0.248  0.752  0.500-  18 3.07  28 3.07  43 3.14  44 3.14  32 3.18  20 3.18
  17  0.243  0.008  0.020-   6 2.96   9 3.07   1 3.15
  18  0.259  0.992  0.481-   6 2.96  16 3.07   7 3.13
  19  0.260  0.495  0.992-  15 3.03   1 3.07   2 3.08
  20  0.238  0.502  0.502-  16 3.18   4 3.18  15 3.19
  21  0.752  0.986  0.998-   3 3.14   9 3.19  11 3.20
  22  0.744  0.010  0.508-  11 3.03   7 3.07   8 3.08
  23  0.740  0.510  0.005-   3 2.94   2 3.02  12 3.11
  24  0.759  0.490  0.494-   4 2.94   8 3.02  12 3.11
  25  0.013  0.248  0.002-   1 3.15   9 3.19  10 3.20
  26  0.989  0.256  0.492-  10 3.03   8 3.07   4 3.07
  27  0.992  0.757  0.980-   5 2.96   9 3.07   3 3.15
  28  0.007  0.740  0.520-   5 2.96  16 3.07   4 3.12
  29  0.489  0.260  0.994-   1 2.94   2 3.03  14 3.11
  30  0.510  0.240  0.506-   7 2.94   8 3.02  14 3.11
  31  0.505  0.739  0.008-  13 3.03   2 3.07   3 3.07
  32  0.498  0.762  0.498-   7 3.16  16 3.18  13 3.20
  33  0.991  0.004  0.247-   9 3.14  10 3.14
  34  0.996  0.009  0.753-   9 3.14  11 3.14
  35  0.997  0.497  0.244-  10 3.12  12 3.14   4 3.55
  36  0.008  0.493  0.757-   5 2.97   4 2.99  15 3.05
  37  0.506  0.991  0.242-   6 2.96   7 2.99  13 3.06
  38  0.503  0.003  0.757-  11 3.13  14 3.14   7 3.56
  39  0.505  0.499  0.257-  12 3.11  13 3.20   2 3.31
  40  0.500  0.495  0.743-  14 3.12  15 3.20   2 3.23
  41  0.242  0.255  0.258-   6 2.97   1 2.99  10 3.06
  42  0.253  0.253  0.743-  15 3.13  14 3.14   1 3.56
  43  0.254  0.741  0.254-  16 3.14  13 3.14
  44  0.259  0.745  0.747-  16 3.14  15 3.14
  45  0.750  0.255  0.242-  12 3.11  10 3.20   8 3.31
  46  0.745  0.250  0.758-  14 3.12  11 3.20   8 3.24
  47  0.747  0.747  0.257-  13 3.12  12 3.14   3 3.56
  48  0.745  0.758  0.743-   5 2.97   3 2.99  11 3.05
 
 -----------------------------------------------------------------------------
|                                                                             |
|           W    W    AA    RRRRR   N    N  II  N    N   GGGG   !!!           |
|           W    W   A  A   R    R  NN   N  II  NN   N  G    G  !!!           |
|           W    W  A    A  R    R  N N  N  II  N N  N  G       !!!           |
|           W WW W  AAAAAA  RRRRR   N  N N  II  N  N N  G  GGG   !            |
|           WW  WW  A    A  R   R   N   NN  II  N   NN  G    G                |
|           W    W  A    A  R    R  N    N  II  N    N   GGGG   !!!           |
|                                                                             |
|     The determination of the symmetry of your systems shows a strong        |
|     dependence on the tolerance parameter SYMPREC. This is often the        |
|     result of "noise" in the structural parameters (lattice vectors         |
|     and/or ionic positions). Set NWRITE=3 for more details.                 |
|                                                                             |
 -----------------------------------------------------------------------------

  LATTYP: Found a base centered monoclinic cell.
 ALAT       =    59.6101297757
 B/A-ratio  =     0.3014830235
 C/A-ratio  =     0.6396168959
 COS(beta)  =    -0.9949361465
  
  Lattice vectors:
  
 A1 = ( -12.7059563212,  12.7104652619,  25.4182301886)
 A2 = ( -12.7058780484,  25.4182687073,  12.7105763985)
 A3 = (  12.7050189024, -25.4194992573, -25.4194601570)


Analysis of symmetry for initial positions (statically):
=====================================================================
 Subroutine PRICEL returns:
 Original cell was already a primitive cell.
 

 Routine SETGRP: Setting up the symmetry group for a 
 base centered monoclinic supercell.


 Subroutine GETGRP returns: Found  1 space group operations
 (whereof  1 operations were pure point group operations)
 out of a pool of  4 trial point group operations.


The static configuration has the point symmetry C_1 .


Analysis of symmetry for dynamics (positions and initial velocities):
=====================================================================
 Subroutine PRICEL returns:
 Original cell was already a primitive cell.
 

 Routine SETGRP: Setting up the symmetry group for a 
 base centered monoclinic supercell.


 Subroutine GETGRP returns: Found  1 space group operations
 (whereof  1 operations were pure point group operations)
 out of a pool of  4 trial point group operations.


The dynamic configuration has the point symmetry C_1 .


 Subroutine INISYM returns: Found  1 space group operations
 (whereof  1 operations are pure point group operations),
 and found     1 'primitive' translations


----------------------------------------------------------------------------------------

                                     Primitive cell                                     

  volume of cell :    2052.6649

  direct lattice vectors                    reciprocal lattice vectors
    12.708612032  0.001029833  0.000767297     0.078686800 -0.000005803 -0.000005319
     0.000937419 12.709033995  0.001229968    -0.000006376  0.078684188 -0.000007618
     0.000859146  0.001230550 12.708883759    -0.000004750 -0.000007615  0.078685118

  length of vectors
    12.708612097 12.709034089 12.708883847     0.078686800  0.078684188  0.078685118

  position of ions in fractional coordinates (direct lattice)
     0.259529476  0.255445617  0.023412524
     0.502562481  0.497679166  0.996882399
     0.744703835  0.740009512  0.977084002
     0.988445230  0.495516922  0.522843369
     0.975674660  0.724226810  0.750137570
     0.275280300  0.024259255  0.250539634
     0.504665767  0.009964420  0.476781971
     0.747260680  0.252605066  0.502635375
     0.002729784  0.997109966  0.000147332
     0.001224953  0.251180883  0.253677679
     0.748669994  0.997958524  0.746522330
     0.749280262  0.499416551  0.249734161
     0.501138488  0.750789591  0.246393006
     0.499755921  0.249654122  0.750215462
     0.248406955  0.498363870  0.753297824
     0.248096755  0.751554439  0.500021384
     0.242947117  0.008261944  0.020080133
     0.259218130  0.992189157  0.480688498
     0.260395230  0.494673614  0.991713742
     0.238108580  0.501518421  0.502300373
     0.752181972  0.986453999  0.997668893
     0.744198704  0.010343944  0.508269045
     0.739768190  0.510380041  0.005339984
     0.758992600  0.489828842  0.494163325
     0.012976293  0.247500983  0.002460685
     0.988702482  0.255712866  0.491976740
     0.991626833  0.756703070  0.980140305
     0.007392914  0.740093515  0.519776631
     0.489240279  0.259974207  0.994479160
     0.509940349  0.239670373  0.505818127
     0.504811429  0.739016122  0.008050095
     0.498117206  0.761907884  0.497646966
     0.990696088  0.004090289  0.246637937
     0.995585924  0.008760104  0.753449541
     0.996571549  0.496776414  0.243514671
     0.008191874  0.493236106  0.757157534
     0.506037646  0.991254788  0.242454084
     0.502826168  0.002867813  0.756707552
     0.504814352  0.499291422  0.257255341
     0.500341608  0.494702899  0.742833423
     0.241743952  0.255076999  0.257747876
     0.252929908  0.252697336  0.743132573
     0.254027210  0.740702353  0.253569088
     0.258818745  0.745353676  0.746628802
     0.749811888  0.254836245  0.242308879
     0.744766703  0.249801916  0.757782901
     0.746658787  0.746590797  0.256845285
     0.744579066  0.757741468  0.742514069

  ion indices of the primitive-cell ions
   primitive index   ion index
                 1           1
                 2           2
                 3           3
                 4           4
                 5           5
                 6           6
                 7           7
                 8           8
                 9           9
                10          10
                11          11
                12          12
                13          13
                14          14
                15          15
                16          16
                17          17
                18          18
                19          19
                20          20
                21          21
                22          22
                23          23
                24          24
                25          25
                26          26
                27          27
                28          28
                29          29
                30          30
                31          31
                32          32
                33          33
                34          34
                35          35
                36          36
                37          37
                38          38
                39          39
                40          40
                41          41
                42          42
                43          43
                44          44
                45          45
                46          46
                47          47
                48          48

----------------------------------------------------------------------------------------

 
 
 KPOINTS: agbii                                   

Automatic generation of k-mesh.
Space group operators:
 irot       det(A)        alpha          n_x          n_y          n_z        tau_x        tau_y        tau_z
    1     1.000000     0.000000     1.000000     0.000000     0.000000     0.000000     0.000000     0.000000
 TETIRR: Found    192 inequivalent tetrahedra from      384
 
 Subroutine IBZKPT returns following result:
 ===========================================
 
 Found     36 irreducible k-points:
 
 Following reciprocal coordinates:
            Coordinates               Weight
  0.000000  0.000000  0.000000      1.000000
  0.250000 -0.000000 -0.000000      2.000000
  0.500000 -0.000000 -0.000000      1.000000
 -0.000000  0.250000 -0.000000      2.000000
  0.000000 -0.000000 -0.250000      2.000000
  0.250000  0.250000  0.000000      2.000000
 -0.250000 -0.000000 -0.250000      2.000000
  0.500000  0.250000  0.000000      2.000000
  0.500000 -0.000000 -0.250000      2.000000
 -0.250000  0.250000  0.000000      2.000000
  0.250000 -0.000000 -0.250000      2.000000
 -0.000000  0.500000  0.000000      1.000000
  0.000000  0.000000  0.500000      1.000000
  0.250000  0.500000  0.000000      2.000000
 -0.250000  0.000000  0.500000      2.000000
  0.500000  0.500000 -0.000000      1.000000
  0.500000  0.000000  0.500000      1.000000
 -0.000000  0.250000  0.250000      2.000000
  0.250000  0.250000  0.250000      2.000000
  0.500000  0.250000  0.250000      2.000000
 -0.250000  0.250000  0.250000      2.000000
  0.000000  0.500000  0.250000      2.000000
  0.000000 -0.250000  0.500000      2.000000
  0.250000  0.500000  0.250000      2.000000
 -0.250000 -0.250000  0.500000      2.000000
  0.500000  0.500000  0.250000      2.000000
  0.500000 -0.250000  0.500000      2.000000
 -0.250000  0.500000  0.250000      2.000000
  0.250000 -0.250000  0.500000      2.000000
  0.000000 -0.250000  0.250000      2.000000
  0.250000 -0.250000  0.250000      2.000000
 -0.250000 -0.250000  0.250000      2.000000
  0.500000 -0.250000  0.250000      2.000000
 -0.000000  0.500000  0.500000      1.000000
  0.250000  0.500000  0.500000      2.000000
  0.500000  0.500000  0.500000      1.000000
 
 Following cartesian coordinates:
            Coordinates               Weight
  0.000000  0.000000  0.000000      1.000000
  0.019672 -0.000001 -0.000001      2.000000
  0.039343 -0.000003 -0.000003      1.000000
 -0.000002  0.019671 -0.000002      2.000000
  0.000001  0.000002 -0.019671      2.000000
  0.019670  0.019670 -0.000003      2.000000
 -0.019671  0.000003 -0.019670      2.000000
  0.039342  0.019668 -0.000005      2.000000
  0.039345 -0.000001 -0.019674      2.000000
 -0.019673  0.019672 -0.000001      2.000000
  0.019673  0.000000 -0.019673      2.000000
 -0.000003  0.039342 -0.000004      1.000000
 -0.000002 -0.000004  0.039343      1.000000
  0.019669  0.039341 -0.000005      2.000000
 -0.019674 -0.000002  0.039344      2.000000
  0.039340  0.039339 -0.000006      1.000000
  0.039341 -0.000007  0.039340      1.000000
 -0.000003  0.019669  0.019669      2.000000
  0.019669  0.019668  0.019668      2.000000
  0.039341  0.019666  0.019667      2.000000
 -0.019674  0.019671  0.019671      2.000000
 -0.000004  0.039340  0.019667      2.000000
 -0.000001 -0.019675  0.039344      2.000000
  0.019667  0.039339  0.019666      2.000000
 -0.019672 -0.019673  0.039346      2.000000
  0.039339  0.039337  0.019665      2.000000
  0.039343 -0.019678  0.039342      2.000000
 -0.019676  0.039342  0.019669      2.000000
  0.019671 -0.019676  0.039343      2.000000
  0.000000 -0.019673  0.019673      2.000000
  0.019672 -0.019674  0.019672      2.000000
 -0.019671 -0.019671  0.019675      2.000000
  0.039344 -0.019676  0.019671      2.000000
 -0.000006  0.039338  0.039339      1.000000
  0.019666  0.039337  0.039337      2.000000
  0.039338  0.039335  0.039336      1.000000
 


--------------------------------------------------------------------------------------------------------




 Dimension of arrays:
   k-points           NKPTS =     36   k-points in BZ     NKDIM =     36   number of bands    NBANDS=    211
   number of dos      NEDOS =   3000   number of ions     NIONS =     48
   non local maximal  LDIM  =      6   non local SUM 2l+1 LMDIM =     18
   total plane-waves  NPLWV = 125000
   max r-space proj   IRMAX =      1   max aug-charges    IRDMAX=   6000
   dimension x,y,z NGX =    50 NGY =   50 NGZ =   50
   dimension x,y,z NGXF=   100 NGYF=  100 NGZF=  100
   support grid    NGXF=   100 NGYF=  100 NGZF=  100
   ions per type =               8   8  32
   NGX,Y,Z   is equivalent  to a cutoff of   6.54,  6.54,  6.54 a.u.
   NGXF,Y,Z  is equivalent  to a cutoff of  13.08, 13.08, 13.08 a.u.

 SYSTEM =  unknown system                          
 POSCAR =  Generation Seed Number                  

 Startparameter for this run:
   NWRITE =      2    write-flag & timer
   PREC   = normal    normal or accurate (medium, high low for compatibility)
   ISTART =      1    job   : 0-new  1-cont  2-samecut
   ICHARG =      1    charge: 1-file 2-atom 10-const
   ISPIN  =      1    spin polarized calculation?
   LNONCOLLINEAR =      F non collinear calculations
   LSORBIT =      F    spin-orbit coupling
   INIWAV =      1    electr: 0-lowe 1-rand  2-diag
   LASPH  =      F    aspherical Exc in radial PAW
   METAGGA=      F    non-selfconsistent MetaGGA calc.

 Electronic Relaxation 1
   ENCUT  =  250.0 eV  18.37 Ry    4.29 a.u.  16.38 16.38 16.38*2*pi/ulx,y,z
   ENINI  =  250.0     initial cutoff
   ENAUG  =  412.5 eV  augmentation charge cutoff
   NELM   =     60;   NELMIN=  2; NELMDL=  0     # of ELM steps 
   EDIFF  = 0.1E-05   stopping-criterion for ELM
   LREAL  =      F    real-space projection
   NLSPLINE    = F    spline interpolate recip. space projectors
   LCOMPAT=      F    compatible to vasp.4.4
   GGA_COMPAT  = T    GGA compatible to vasp.4.4-vasp.4.6
   LMAXPAW     = -100 max onsite density
   LMAXMIX     =    4 max onsite mixed and CHGCAR
   VOSKOWN=      0    Vosko Wilk Nusair interpolation
   ROPT   =    0.00000   0.00000   0.00000
 Ionic relaxation
   EDIFFG = -.1E-01   stopping-criterion for IOM
   NSW    =      0    number of steps for IOM
   NBLOCK =      1;   KBLOCK =      1    inner block; outer block 
   IBRION =     -1    ionic relax: 0-MD 1-quasi-New 2-CG
   NFREE  =      0    steps in history (QN), initial steepest desc. (CG)
   ISIF   =     -1    stress and relaxation
   IWAVPR =     10    prediction:  0-non 1-charg 2-wave 3-comb
   ISYM   =      2    0-nonsym 1-usesym 2-fastsym
   LCORR  =      T    Harris-Foulkes like correction to forces

   POTIM  = 0.5000    time-step for ionic-motion
   TEIN   =    0.0    initial temperature
   TEBEG  =    0.0;   TEEND  =   0.0 temperature during run
   SMASS  =  -3.00    Nose mass-parameter (am)
   estimated Nose-frequenzy (Omega)   =  0.10E-29 period in steps = 0.13E+47 mass=  -0.369E-26a.u.
   SCALEE = 1.0000    scale energy and forces
   NPACO  =    256;   APACO  = 16.0  distance and # of slots for P.C.
   PSTRESS=    0.0 pullay stress

  Mass of Ions in am
   POMASS = 107.87208.98126.90
  Ionic Valenz
   ZVAL   =  11.00  5.00  7.00
  Atomic Wigner-Seitz radii
   RWIGS  =  -1.00 -1.00 -1.00
  virtual crystal weights 
   VCA    =   1.00  1.00  1.00
   NELECT =     352.0000    total number of electrons
   NUPDOWN=      -1.0000    fix difference up-down

 DOS related values:
   EMIN   =  10.00;   EMAX   =-10.00  energy-range for DOS
   EFERMI =   0.00
   ISMEAR =    -5;   SIGMA  =   0.20  broadening in eV -4-tet -1-fermi 0-gaus

 Electronic relaxation 2 (details)
   IALGO  =     38    algorithm
   LDIAG  =      T    sub-space diagonalisation (order eigenvalues)
   LSUBROT=      F    optimize rotation matrix (better conditioning)
   TURBO    =      0    0=normal 1=particle mesh
   IRESTART =      0    0=no restart 2=restart with 2 vectors
   NREBOOT  =      0    no. of reboots
   NMIN     =      0    reboot dimension
   EREF     =   0.00    reference energy to select bands
   IMIX   =      4    mixing-type and parameters
     AMIX     =   0.40;   BMIX     =  1.00
     AMIX_MAG =   1.60;   BMIX_MAG =  1.00
     AMIN     =   0.10
     WC   =   100.;   INIMIX=   1;  MIXPRE=   1;  MAXMIX= -45

 Intra band minimization:
   WEIMIN = 0.0000     energy-eigenvalue tresh-hold
   EBREAK =  0.12E-08  absolut break condition
   DEPER  =   0.30     relativ break condition  

   TIME   =   0.40     timestep for ELM

  volume/ion in A,a.u.               =      42.76       288.58
  Fermi-wavevector in a.u.,A,eV,Ry     =   0.909529  1.718760 11.255315  0.827242
  Thomas-Fermi vector in A             =   2.033584
 
 Write flags
   LWAVE        =      T    write WAVECAR
   LDOWNSAMPLE  =      F    k-point downsampling of WAVECAR
   LCHARG       =      T    write CHGCAR
   LVTOT        =      F    write LOCPOT, total local potential
   LVHAR        =      F    write LOCPOT, Hartree potential only
   LELF         =      F    write electronic localiz. function (ELF)
   LORBIT       =     10    0 simple, 1 ext, 2 COOP (PROOUT), +10 PAW based schemes


 Dipole corrections
   LMONO  =      F    monopole corrections only (constant potential shift)
   LDIPOL =      F    correct potential (dipole corrections)
   IDIPOL =      0    1-x, 2-y, 3-z, 4-all directions 
   EPSILON=  1.0000000 bulk dielectric constant

 Exchange correlation treatment:
   GGA     =    --    GGA type
   LEXCH   =     8    internal setting for exchange type
   VOSKOWN=      0    Vosko Wilk Nusair interpolation
   LHFCALC =     F    Hartree Fock is set to
   LHFONE  =     F    Hartree Fock one center treatment
   AEXX    =    0.0000 exact exchange contribution

 Linear response parameters
   LEPSILON=     F    determine dielectric tensor
   LRPA    =     F    only Hartree local field effects (RPA)
   LNABLA  =     F    use nabla operator in PAW spheres
   LVEL    =     F    velocity operator in full k-point grid
   LINTERFAST=   F  fast interpolation
   KINTER  =     0    interpolate to denser k-point grid
   CSHIFT  =0.1000    complex shift for real part using Kramers Kronig
   OMEGAMAX=  -1.0    maximum frequency
   DEG_THRESHOLD= 0.2000000E-02 threshold for treating states as degnerate
   RTIME   =   -0.100 relaxation time in fs
  (WPLASMAI=    0.000 imaginary part of plasma frequency in eV, 0.658/RTIME)
   DFIELD  = 0.0000000 0.0000000 0.0000000 field for delta impulse in time
 
 Orbital magnetization related:
   ORBITALMAG=     F  switch on orbital magnetization
   LCHIMAG   =     F  perturbation theory with respect to B field
   DQ        =  0.001000  dq finite difference perturbation B field
   LLRAUG    =     F  two centre corrections for induced B field



--------------------------------------------------------------------------------------------------------


 Static calculation
 charge density and potential will be updated during run
 non-spin polarized calculation
 Variant of blocked Davidson
 Davidson routine will perform the subspace rotation
 perform sub-space diagonalisation
    after iterative eigenvector-optimisation
 modified Broyden-mixing scheme, WC =      100.0
 initial mixing is a Kerker type mixing with AMIX =  0.4000 and BMIX =      1.0000
 Hartree-type preconditioning will be used
 using additional bands           35
 reciprocal scheme for non local part
 use partial core corrections
 calculate Harris-corrections to forces 
   (improved forces if not selfconsistent)
 use gradient corrections 
 use of overlap-Matrix (Vanderbilt PP)
 Fermi weights with tetrahedron method with Bloechl corrections


--------------------------------------------------------------------------------------------------------


  energy-cutoff  :      250.00
  volume of cell :     2052.66
      direct lattice vectors                 reciprocal lattice vectors
    12.708612032  0.001029833  0.000767297     0.078686800 -0.000005803 -0.000005319
     0.000937419 12.709033995  0.001229968    -0.000006376  0.078684188 -0.000007618
     0.000859146  0.001230550 12.708883759    -0.000004750 -0.000007615  0.078685118

  length of vectors
    12.708612097 12.709034089 12.708883847     0.078686800  0.078684188  0.078685118


 
 old parameters found on file WAVECAR:
  energy-cutoff  :      250.00
  volume of cell :     2052.66
      direct lattice vectors                 reciprocal lattice vectors
    12.708612032  0.001029833  0.000767297     0.078686800 -0.000005803 -0.000005319
     0.000937419 12.709033995  0.001229968    -0.000006376  0.078684188 -0.000007618
     0.000859146  0.001230550 12.708883759    -0.000004750 -0.000007615  0.078685118

  length of vectors

 
 k-points in units of 2pi/SCALE and weight: agbii                                   
   0.00000000  0.00000000  0.00000000       0.016
   0.01967170 -0.00000145 -0.00000133       0.031
   0.03934340 -0.00000290 -0.00000266       0.016
  -0.00000159  0.01967105 -0.00000190       0.031
   0.00000119  0.00000190 -0.01967128       0.031
   0.01967011  0.01966960 -0.00000323       0.031
  -0.01967051  0.00000335 -0.01966995       0.031
   0.03934181  0.01966815 -0.00000456       0.031
   0.03934459 -0.00000100 -0.01967394       0.031
  -0.01967329  0.01967250 -0.00000057       0.031
   0.01967289  0.00000045 -0.01967261       0.031
  -0.00000319  0.03934209 -0.00000381       0.016
  -0.00000238 -0.00000381  0.03934256       0.016
   0.01966851  0.03934064 -0.00000514       0.031
  -0.01967407 -0.00000236  0.03934389       0.031
   0.03934021  0.03933919 -0.00000647       0.016
   0.03934102 -0.00000671  0.03933990       0.016
  -0.00000278  0.01966914  0.01966937       0.031
   0.01966892  0.01966769  0.01966805       0.031
   0.03934062  0.01966624  0.01966672       0.031
  -0.01967448  0.01967059  0.01967070       0.031
  -0.00000438  0.03934019  0.01966747       0.031
  -0.00000078 -0.01967485  0.03934446       0.031
   0.01966732  0.03933874  0.01966614       0.031
  -0.01967248 -0.01967340  0.03934579       0.031
   0.03933902  0.03933729  0.01966481       0.031
   0.03934262 -0.01967776  0.03934180       0.031
  -0.01967608  0.03934164  0.01966880       0.031
   0.01967092 -0.01967631  0.03934313       0.031
   0.00000041 -0.01967295  0.01967318       0.031
   0.01967211 -0.01967440  0.01967185       0.031
  -0.01967129 -0.01967150  0.01967451       0.031
   0.03934381 -0.01967585  0.01967052       0.031
  -0.00000556  0.03933829  0.03933875       0.016
   0.01966614  0.03933684  0.03933742       0.031
   0.03933784  0.03933538  0.03933609       0.016
 
 k-points in reciprocal lattice and weights: agbii                                   
   0.00000000  0.00000000  0.00000000       0.016
   0.25000000 -0.00000000 -0.00000000       0.031
   0.50000000 -0.00000000 -0.00000000       0.016
  -0.00000000  0.25000000 -0.00000000       0.031
   0.00000000 -0.00000000 -0.25000000       0.031
   0.25000000  0.25000000  0.00000000       0.031
  -0.25000000 -0.00000000 -0.25000000       0.031
   0.50000000  0.25000000  0.00000000       0.031
   0.50000000 -0.00000000 -0.25000000       0.031
  -0.25000000  0.25000000  0.00000000       0.031
   0.25000000 -0.00000000 -0.25000000       0.031
  -0.00000000  0.50000000  0.00000000       0.016
   0.00000000  0.00000000  0.50000000       0.016
   0.25000000  0.50000000  0.00000000       0.031
  -0.25000000  0.00000000  0.50000000       0.031
   0.50000000  0.50000000 -0.00000000       0.016
   0.50000000  0.00000000  0.50000000       0.016
  -0.00000000  0.25000000  0.25000000       0.031
   0.25000000  0.25000000  0.25000000       0.031
   0.50000000  0.25000000  0.25000000       0.031
  -0.25000000  0.25000000  0.25000000       0.031
   0.00000000  0.50000000  0.25000000       0.031
   0.00000000 -0.25000000  0.50000000       0.031
   0.25000000  0.50000000  0.25000000       0.031
  -0.25000000 -0.25000000  0.50000000       0.031
   0.50000000  0.50000000  0.25000000       0.031
   0.50000000 -0.25000000  0.50000000       0.031
  -0.25000000  0.50000000  0.25000000       0.031
   0.25000000 -0.25000000  0.50000000       0.031
   0.00000000 -0.25000000  0.25000000       0.031
   0.25000000 -0.25000000  0.25000000       0.031
  -0.25000000 -0.25000000  0.25000000       0.031
   0.50000000 -0.25000000  0.25000000       0.031
  -0.00000000  0.50000000  0.50000000       0.016
   0.25000000  0.50000000  0.50000000       0.031
   0.50000000  0.50000000  0.50000000       0.016
 
 position of ions in fractional coordinates (direct lattice) 
   0.25952948  0.25544562  0.02341252
   0.50256248  0.49767917  0.99688240
   0.74470383  0.74000951  0.97708400
   0.98844523  0.49551692  0.52284337
   0.97567466  0.72422681  0.75013757
   0.27528030  0.02425925  0.25053963
   0.50466577  0.00996442  0.47678197
   0.74726068  0.25260507  0.50263537
   0.00272978  0.99710997  0.00014733
   0.00122495  0.25118088  0.25367768
   0.74866999  0.99795852  0.74652233
   0.74928026  0.49941655  0.24973416
   0.50113849  0.75078959  0.24639301
   0.49975592  0.24965412  0.75021546
   0.24840696  0.49836387  0.75329782
   0.24809676  0.75155444  0.50002138
   0.24294712  0.00826194  0.02008013
   0.25921813  0.99218916  0.48068850
   0.26039523  0.49467361  0.99171374
   0.23810858  0.50151842  0.50230037
   0.75218197  0.98645400  0.99766889
   0.74419870  0.01034394  0.50826905
   0.73976819  0.51038004  0.00533998
   0.75899260  0.48982884  0.49416332
   0.01297629  0.24750098  0.00246068
   0.98870248  0.25571287  0.49197674
   0.99162683  0.75670307  0.98014031
   0.00739291  0.74009351  0.51977663
   0.48924028  0.25997421  0.99447916
   0.50994035  0.23967037  0.50581813
   0.50481143  0.73901612  0.00805010
   0.49811721  0.76190788  0.49764697
   0.99069609  0.00409029  0.24663794
   0.99558592  0.00876010  0.75344954
   0.99657155  0.49677641  0.24351467
   0.00819187  0.49323611  0.75715753
   0.50603765  0.99125479  0.24245408
   0.50282617  0.00286781  0.75670755
   0.50481435  0.49929142  0.25725534
   0.50034161  0.49470290  0.74283342
   0.24174395  0.25507700  0.25774788
   0.25292991  0.25269734  0.74313257
   0.25402721  0.74070235  0.25356909
   0.25881874  0.74535368  0.74662880
   0.74981189  0.25483624  0.24230888
   0.74476670  0.24980192  0.75778290
   0.74665879  0.74659080  0.25684528
   0.74457907  0.75774147  0.74251407
 
 position of ions in cartesian coordinates  (Angst):
   3.29851899  3.24676311  0.29806037
   6.38819460  6.32676571 12.67026027
   9.46568527  9.40677532 12.41912860
  12.56268065  6.29920272  6.64612350
  12.40079411  9.20615101  9.53505058
   3.49866852  0.30890349  3.18432015
   6.41402040  0.12774458  6.05976613
   9.49731470  3.21175444  6.38881862
   0.03562660 12.67230745  0.00310094
   0.01602086  3.19257980  3.22427002
   9.51613337 12.68477844  9.48926743
   9.52299488  6.34818086  3.17503161
   6.36969011  9.54262972  3.13268805
   6.35208268  3.17430056  9.53509162
   3.15802199  6.33490616  9.57437805
   3.15409952  9.55240171  6.35582840
   3.08754565  0.10527624  0.25539265
   3.29564572 12.61062419  6.11043350
   3.31057769  6.28831229 12.60438290
   3.02693125  6.37467798  6.38447660
   9.56097073 12.53887971 12.68104845
   9.45817898  0.13285339  6.46011596
   9.40190994  6.48720570  0.06906061
   9.64662622  6.22664113  6.28144910
   0.16514480  3.14551480  0.03158693
  12.56569864  3.25148710  6.25354835
  12.60375213  9.61919236 12.45818080
   0.09509402  9.40652086  6.60669675
   6.21866300  3.30574863 12.63941520
   6.48129330  3.04712651  6.42906985
   6.41615228  9.39271079  0.10360403
   6.33152009  9.68423855  6.32585677
  12.59058795  0.05330738  3.13525806
  12.65317078  0.11328491  9.57627732
  12.66571608  6.31487430  3.09617533
   0.10522022  6.26949459  9.62324004
   6.43217364 12.59871028  3.08292827
   6.39087550  0.03789613  9.61729766
   6.41617882  6.34634810  3.27042967
   6.35974932  6.28862533  9.44157600
   3.07269066  3.24234839  3.27618702
   3.21526342  3.21271397  9.44489037
   3.22924546  9.41418502  3.22368602
   3.29056718  9.47391052  9.48993400
   9.52951545  3.23979285  3.08036414
   9.46583630  3.17644052  9.63145351
   9.48991738  9.48953282  3.26570806
   9.46391473  9.63184257  9.43802830
 


--------------------------------------------------------------------------------------------------------


 k-point   1 :   0.0000 0.0000 0.0000  plane waves:   18349
 k-point   2 :   0.2500-0.0000-0.0000  plane waves:   18465
 k-point   3 :   0.5000-0.0000-0.0000  plane waves:   18464
 k-point   4 :  -0.0000 0.2500-0.0000  plane waves:   18465
 k-point   5 :   0.0000-0.0000-0.2500  plane waves:   18465
 k-point   6 :   0.2500 0.2500 0.0000  plane waves:   18429
 k-point   7 :  -0.2500-0.0000-0.2500  plane waves:   18429
 k-point   8 :   0.5000 0.2500 0.0000  plane waves:   18418
 k-point   9 :   0.5000-0.0000-0.2500  plane waves:   18418
 k-point  10 :  -0.2500 0.2500 0.0000  plane waves:   18429
 k-point  11 :   0.2500-0.0000-0.2500  plane waves:   18429
 k-point  12 :  -0.0000 0.5000 0.0000  plane waves:   18464
 k-point  13 :   0.0000 0.0000 0.5000  plane waves:   18464
 k-point  14 :   0.2500 0.5000 0.0000  plane waves:   18418
 k-point  15 :  -0.2500 0.0000 0.5000  plane waves:   18418
 k-point  16 :   0.5000 0.5000-0.0000  plane waves:   18420
 k-point  17 :   0.5000 0.0000 0.5000  plane waves:   18418
 k-point  18 :  -0.0000 0.2500 0.2500  plane waves:   18429
 k-point  19 :   0.2500 0.2500 0.2500  plane waves:   18430
 k-point  20 :   0.5000 0.2500 0.2500  plane waves:   18438
 k-point  21 :  -0.2500 0.2500 0.2500  plane waves:   18430
 k-point  22 :   0.0000 0.5000 0.2500  plane waves:   18418
 k-point  23 :   0.0000-0.2500 0.5000  plane waves:   18418
 k-point  24 :   0.2500 0.5000 0.2500  plane waves:   18438
 k-point  25 :  -0.2500-0.2500 0.5000  plane waves:   18438
 k-point  26 :   0.5000 0.5000 0.2500  plane waves:   18432
 k-point  27 :   0.5000-0.2500 0.5000  plane waves:   18432
 k-point  28 :  -0.2500 0.5000 0.2500  plane waves:   18438
 k-point  29 :   0.2500-0.2500 0.5000  plane waves:   18438
 k-point  30 :   0.0000-0.2500 0.2500  plane waves:   18429
 k-point  31 :   0.2500-0.2500 0.2500  plane waves:   18430
 k-point  32 :  -0.2500-0.2500 0.2500  plane waves:   18430
 k-point  33 :   0.5000-0.2500 0.2500  plane waves:   18438
 k-point  34 :  -0.0000 0.5000 0.5000  plane waves:   18420
 k-point  35 :   0.2500 0.5000 0.5000  plane waves:   18432
 k-point  36 :   0.5000 0.5000 0.5000  plane waves:   18336

 maximum and minimum number of plane-waves per node :     18465    18336

 maximum number of plane-waves:     18465
 maximum index in each direction: 
   IXMAX=   16   IYMAX=   16   IZMAX=   16
   IXMIN=  -16   IYMIN=  -16   IZMIN=  -16


 serial   3D FFT for wavefunctions
 parallel 3D FFT for charge:
    minimum data exchange during FFTs selected (reduces bandwidth)


 total amount of memory used by VASP MPI-rank0  2761676. kBytes
=======================================================================

   base      :      30000. kBytes
   nonl-proj :     301348. kBytes
   fftplans  :      34720. kBytes
   grid      :      70000. kBytes
   one-center:        746. kBytes
   wavefun   :    2324862. kBytes
 
     INWAV:  cpu time    4.5939: real time    4.7373
 Broyden mixing: mesh for mixing (old mesh)
   NGX = 33   NGY = 33   NGZ = 33
  (NGX  =100   NGY  =100   NGZ  =100)
  gives a total of  35937 points

 initial charge density was supplied:
 number of electron     352.0000344 magnetization 
 keeping initial charge density in first step


--------------------------------------------------------------------------------------------------------


 Maximum index for augmentation-charges         5632 (set IRDMAX)


--------------------------------------------------------------------------------------------------------


 First call to EWALD:  gamma=   0.139
 Maximum number of real-space cells 3x 3x 3
 Maximum number of reciprocal cells 3x 3x 3

    FEWALD:  cpu time    0.0026: real time    0.0026


--------------------------------------- Iteration      1(   1)  ---------------------------------------


    POTLOK:  cpu time    0.5869: real time    0.5980
    SETDIJ:  cpu time    0.0269: real time    0.0269
     EDDAV:  cpu time   58.8952: real time   58.8950
 BZINTS: Fermi energy:    2.094188;  352.000000 electrons
         Band energy:-0.747284E+03;  BLOECHL correction:   -0.000000
       DOS:  cpu time    0.0582: real time    0.0582
    CHARGE:  cpu time    1.2139: real time    1.2139
    MIXING:  cpu time    0.0238: real time    0.0238
    --------------------------------------------
      LOOP:  cpu time   60.8049: real time   60.8158

 eigenvalue-minimisations  : 10912
 total energy-change (2. order) :-0.1199666E+03  (-0.3302053E-06)
 number of electron     352.0000344 magnetization 
 augmentation part      -23.1240424 magnetization 

 Broyden mixing:
  rms(total) = 0.70175E-03    rms(broyden)= 0.70171E-03
  rms(prec ) = 0.82357E-03
  weight for this iteration     100.00

 Free energy of the ion-electron system (eV)
  ---------------------------------------------------
  alpha Z        PSCENC =       226.87499512
  Ewald energy   TEWEN  =    -13910.64955657
  -Hartree energ DENC   =     -6050.85142686
  -exchange      EXHF   =         0.00000000
  -V(xc)+E(xc)   XCENC  =     -1392.26358546
  PAW double counting   =     22651.26356814   -20508.78019547
  entropy T*S    EENTRO =         0.00000000
  eigenvalues    EBANDS =      -747.28410811
  atomic energy  EATOM  =     19611.72375700
  Solvation  Ediel_sol  =         0.00000000
  ---------------------------------------------------
  free energy    TOTEN  =      -119.96655221 eV

  energy without entropy =     -119.96655221  energy(sigma->0) =     -119.96655221


--------------------------------------------------------------------------------------------------------




--------------------------------------- Iteration      1(   2)  ---------------------------------------


    POTLOK:  cpu time    0.5582: real time    0.5585
    SETDIJ:  cpu time    0.0575: real time    0.0575
     EDDAV:  cpu time   48.6313: real time   48.6309
 BZINTS: Fermi energy:    2.094348;  352.000000 electrons
         Band energy:-0.747284E+03;  BLOECHL correction:    0.000000
       DOS:  cpu time    0.0558: real time    0.0558
    --------------------------------------------
      LOOP:  cpu time   49.3027: real time   49.3026

 eigenvalue-minimisations  :  8216
 total energy-change (2. order) : 0.1305380E-06  (-0.1476228E-06)
 number of electron     352.0000344 magnetization 
 augmentation part      -23.1240424 magnetization 

 Free energy of the ion-electron system (eV)
  ---------------------------------------------------
  alpha Z        PSCENC =       226.87499512
  Ewald energy   TEWEN  =    -13910.64955657
  -Hartree energ DENC   =     -6050.85086207
  -exchange      EXHF   =         0.00000000
  -V(xc)+E(xc)   XCENC  =     -1392.26304633
  PAW double counting   =     22650.82210777   -20508.33946829
  entropy T*S    EENTRO =         0.00000000
  eigenvalues    EBANDS =      -747.28447871
  atomic energy  EATOM  =     19611.72375700
  Solvation  Ediel_sol  =         0.00000000
  ---------------------------------------------------
  free energy    TOTEN  =      -119.96655208 eV

  energy without entropy =     -119.96655208  energy(sigma->0) =     -119.96655208


--------------------------------------------------------------------------------------------------------




 average (electrostatic) potential at core
  the test charge radii are     1.1249  1.4024  1.1875
  (the norm of the test charge is              1.0000)
       1 -75.0258       2 -74.9701       3 -75.0259       4 -75.0290       5 -75.1550
       6 -75.1508       7 -75.0273       8 -74.9713       9 -65.4415      10 -65.4958
      11 -65.4994      12 -65.4678      13 -65.4960      14 -65.4754      15 -65.4997
      16 -65.4409      17 -93.0512      18 -93.0581      19 -93.0418      20 -93.1487
      21 -93.1554      22 -93.0454      23 -92.9740      24 -92.9728      25 -93.1566
      26 -93.0495      27 -93.0530      28 -93.0620      29 -92.9726      30 -92.9721
      31 -93.0459      32 -93.1541      33 -93.2905      34 -93.2928      35 -93.3022
      36 -93.2022      37 -93.1921      38 -93.3099      39 -93.2771      40 -93.2967
      41 -93.1892      42 -93.3113      43 -93.2944      44 -93.2971      45 -93.2758
      46 -93.2924      47 -93.3036      48 -93.1963
 
 
 
 E-fermi :   2.0943     XC(G=0):  -7.8209     alpha+bet : -7.7978


 k-point     1 :       0.0000    0.0000    0.0000
  band No.  band energies     occupation 
      1     -10.8165      2.00000
      2     -10.6854      2.00000
      3     -10.6398      2.00000
      4     -10.5047      2.00000
      5     -10.4534      2.00000
      6     -10.2270      2.00000
      7     -10.1936      2.00000
      8     -10.0129      2.00000
      9      -9.8617      2.00000
     10      -9.8533      2.00000
     11      -9.8360      2.00000
     12      -9.8216      2.00000
     13      -9.8073      2.00000
     14      -9.7790      2.00000
     15      -9.7770      2.00000
     16      -9.7091      2.00000
     17      -9.6981      2.00000
     18      -9.6805      2.00000
     19      -9.6788      2.00000
     20      -9.6773      2.00000
     21      -9.6517      2.00000
     22      -9.6276      2.00000
     23      -9.6222      2.00000
     24      -9.5955      2.00000
     25      -9.5828      2.00000
     26      -9.5746      2.00000
     27      -9.5573      2.00000
     28      -9.5305      2.00000
     29      -9.5235      2.00000
     30      -9.5190      2.00000
     31      -9.5121      2.00000
     32      -9.4795      2.00000
     33      -8.1875      2.00000
     34      -8.0897      2.00000
     35      -8.0772      2.00000
     36      -7.8489      2.00000
     37      -7.8232      2.00000
     38      -7.6161      2.00000
     39      -7.5984      2.00000
     40      -7.5979      2.00000
     41      -1.7936      2.00000
     42      -1.7345      2.00000
     43      -1.6861      2.00000
     44      -1.6778      2.00000
     45      -1.6266      2.00000
     46      -1.5590      2.00000
     47      -1.4982      2.00000
     48      -1.4454      2.00000
     49      -1.4401      2.00000
     50      -1.4059      2.00000
     51      -1.4025      2.00000
     52      -1.3631      2.00000
     53      -1.3277      2.00000
     54      -1.2915      2.00000
     55      -1.2840      2.00000
     56      -1.2492      2.00000
     57      -1.2035      2.00000
     58      -1.1989      2.00000
     59      -1.1259      2.00000
     60      -1.0784      2.00000
     61      -1.0729      2.00000
     62      -1.0331      2.00000
     63      -0.9949      2.00000
     64      -0.9887      2.00000
     65      -0.9822      2.00000
     66      -0.9716      2.00000
     67      -0.9552      2.00000
     68      -0.9525      2.00000
     69      -0.9302      2.00000
     70      -0.8944      2.00000
     71      -0.8881      2.00000
     72      -0.8857      2.00000
     73      -0.8502      2.00000
     74      -0.8225      2.00000
     75      -0.8184      2.00000
     76      -0.7868      2.00000
     77      -0.7826      2.00000
     78      -0.7733      2.00000
     79      -0.7549      2.00000
     80      -0.7076      2.00000
     81      -0.6748      2.00000
     82      -0.6645      2.00000
     83      -0.6271      2.00000
     84      -0.6139      2.00000
     85      -0.6018      2.00000
     86      -0.5828      2.00000
     87      -0.5520      2.00000
     88      -0.5231      2.00000
     89      -0.5112      2.00000
     90      -0.4763      2.00000
     91      -0.4483      2.00000
     92      -0.4384      2.00000
     93      -0.4249      2.00000
     94      -0.3827      2.00000
     95      -0.3696      2.00000
     96      -0.3415      2.00000
     97      -0.3222      2.00000
     98      -0.3182      2.00000
     99      -0.2917      2.00000
    100      -0.2874      2.00000
    101      -0.2552      2.00000
    102      -0.2358      2.00000
    103      -0.2312      2.00000
    104      -0.1989      2.00000
    105      -0.1756      2.00000
    106      -0.1707      2.00000
    107      -0.1446      2.00000
    108      -0.1223      2.00000
    109      -0.0932      2.00000
    110      -0.0832      2.00000
    111      -0.0295      2.00000
    112      -0.0112      2.00000
    113       0.1066      2.00000
    114       0.1552      2.00000
    115       0.1973      2.00000
    116       0.2050      2.00000
    117       0.2103      2.00000
    118       0.2378      2.00000
    119       0.2622      2.00000
    120       0.2741      2.00000
    121       0.2793      2.00000
    122       0.3188      2.00000
    123       0.3847      2.00000
    124       0.4237      2.00000
    125       0.4303      2.00000
    126       0.4420      2.00000
    127       0.5112      2.00000
    128       0.5433      2.00000
    129       0.5503      2.00000
    130       0.5530      2.00000
    131       0.5650      2.00000
    132       0.5779      2.00000
    133       0.6157      2.00000
    134       0.6694      2.00000
    135       0.7225      2.00000
    136       0.7369      2.00000
    137       0.7429      2.00000
    138       0.7442      2.00000
    139       0.7571      2.00000
    140       0.8096      2.00000
    141       0.8100      2.00000
    142       0.8257      2.00000
    143       0.8492      2.00000
    144       0.8678      2.00000
    145       0.8756      2.00000
    146       0.9165      2.00000
    147       0.9681      2.00000
    148       0.9968      2.00000
    149       1.0205      2.00000
    150       1.0557      2.00000
    151       1.0945      2.00000
    152       1.1201      2.00000
    153       1.1325      2.00000
    154       1.1822      2.00000
    155       1.1977      2.00000
    156       1.2019      2.00000
    157       1.2258      2.00000
    158       1.2367      2.00000
    159       1.2731      2.00000
    160       1.3413      2.00000
    161       1.3882      2.00000
    162       1.4321      2.00000
    163       1.4979      2.00000
    164       1.5271      2.00000
    165       1.5737      2.00000
    166       1.5876      2.00000
    167       1.6097      2.00000
    168       1.6360      2.00000
    169       1.7926      2.00000
    170       1.7967      2.00000
    171       1.9130      2.00000
    172       1.9284      2.00000
    173       2.0369      2.00000
    174       2.0497      2.00000
    175       2.0650      2.00000
    176       2.0943      2.00000
    177       3.8708      0.00000
    178       4.0331      0.00000
    179       4.0439      0.00000
    180       4.1567      0.00000
    181       4.1937      0.00000
    182       4.3752      0.00000
    183       4.3787      0.00000
    184       4.4246      0.00000
    185       4.4513      0.00000
    186       4.4692      0.00000
    187       4.5460      0.00000
    188       4.5625      0.00000
    189       4.5892      0.00000
    190       4.5933      0.00000
    191       4.6324      0.00000
    192       4.6418      0.00000
    193       4.6694      0.00000
    194       4.7327      0.00000
    195       4.7606      0.00000
    196       4.7667      0.00000
    197       4.8330      0.00000
    198       4.8623      0.00000
    199       4.8686      0.00000
    200       4.9829      0.00000
    201       5.1084      0.00000
    202       5.3017      0.00000
    203       5.6110      0.00000
    204       5.7505      0.00000
    205       5.9563      0.00000
    206       5.9774      0.00000
    207       5.9884      0.00000
    208       6.0224      0.00000
    209       7.1842      0.00000
    210       7.2881      0.00000
    211       7.3009      0.00000

 k-point     2 :       0.2500   -0.0000   -0.0000
  band No.  band energies     occupation 
      1     -10.8014      2.00000
      2     -10.6913      2.00000
      3     -10.6607      2.00000
      4     -10.5020      2.00000
      5     -10.4498      2.00000
      6     -10.2261      2.00000
      7     -10.1820      2.00000
      8     -10.0236      2.00000
      9      -9.8666      2.00000
     10      -9.8620      2.00000
     11      -9.8417      2.00000
     12      -9.8217      2.00000
     13      -9.8103      2.00000
     14      -9.7688      2.00000
     15      -9.7575      2.00000
     16      -9.7133      2.00000
     17      -9.6992      2.00000
     18      -9.6858      2.00000
     19      -9.6677      2.00000
     20      -9.6651      2.00000
     21      -9.6582      2.00000
     22      -9.6292      2.00000
     23      -9.6160      2.00000
     24      -9.6021      2.00000
     25      -9.5785      2.00000
     26      -9.5773      2.00000
     27      -9.5522      2.00000
     28      -9.5357      2.00000
     29      -9.5261      2.00000
     30      -9.5201      2.00000
     31      -9.5103      2.00000
     32      -9.4855      2.00000
     33      -8.1928      2.00000
     34      -8.0867      2.00000
     35      -8.0767      2.00000
     36      -7.8477      2.00000
     37      -7.8238      2.00000
     38      -7.6474      2.00000
     39      -7.5964      2.00000
     40      -7.5688      2.00000
     41      -1.7714      2.00000
     42      -1.7178      2.00000
     43      -1.6868      2.00000
     44      -1.6630      2.00000
     45      -1.6205      2.00000
     46      -1.5809      2.00000
     47      -1.5295      2.00000
     48      -1.5146      2.00000
     49      -1.4621      2.00000
     50      -1.4184      2.00000
     51      -1.3654      2.00000
     52      -1.3517      2.00000
     53      -1.3190      2.00000
     54      -1.2869      2.00000
     55      -1.2677      2.00000
     56      -1.2416      2.00000
     57      -1.1962      2.00000
     58      -1.1712      2.00000
     59      -1.1471      2.00000
     60      -1.0984      2.00000
     61      -1.0865      2.00000
     62      -1.0530      2.00000
     63      -1.0181      2.00000
     64      -1.0036      2.00000
     65      -0.9868      2.00000
     66      -0.9696      2.00000
     67      -0.9490      2.00000
     68      -0.9354      2.00000
     69      -0.9131      2.00000
     70      -0.9037      2.00000
     71      -0.8833      2.00000
     72      -0.8737      2.00000
     73      -0.8526      2.00000
     74      -0.8415      2.00000
     75      -0.8050      2.00000
     76      -0.7846      2.00000
     77      -0.7832      2.00000
     78      -0.7777      2.00000
     79      -0.7345      2.00000
     80      -0.7232      2.00000
     81      -0.6770      2.00000
     82      -0.6505      2.00000
     83      -0.6272      2.00000
     84      -0.6176      2.00000
     85      -0.6016      2.00000
     86      -0.5590      2.00000
     87      -0.5521      2.00000
     88      -0.5247      2.00000
     89      -0.4776      2.00000
     90      -0.4641      2.00000
     91      -0.4474      2.00000
     92      -0.4361      2.00000
     93      -0.4089      2.00000
     94      -0.3830      2.00000
     95      -0.3679      2.00000
     96      -0.3546      2.00000
     97      -0.3425      2.00000
     98      -0.3312      2.00000
     99      -0.3085      2.00000
    100      -0.2827      2.00000
    101      -0.2706      2.00000
    102      -0.2523      2.00000
    103      -0.1932      2.00000
    104      -0.1896      2.00000
    105      -0.1790      2.00000
    106      -0.1460      2.00000
    107      -0.1274      2.00000
    108      -0.1246      2.00000
    109      -0.1148      2.00000
    110      -0.0980      2.00000
    111      -0.0658      2.00000
    112      -0.0153      2.00000
    113       0.1112      2.00000
    114       0.1386      2.00000
    115       0.1624      2.00000
    116       0.1767      2.00000
    117       0.2080      2.00000
    118       0.2565      2.00000
    119       0.2750      2.00000
    120       0.2932      2.00000
    121       0.3116      2.00000
    122       0.3655      2.00000
    123       0.3801      2.00000
    124       0.3836      2.00000
    125       0.4444      2.00000
    126       0.4777      2.00000
    127       0.4996      2.00000
    128       0.5350      2.00000
    129       0.5553      2.00000
    130       0.5833      2.00000
    131       0.5957      2.00000
    132       0.6190      2.00000
    133       0.6289      2.00000
    134       0.6558      2.00000
    135       0.6798      2.00000
    136       0.7161      2.00000
    137       0.7285      2.00000
    138       0.7477      2.00000
    139       0.7851      2.00000
    140       0.7918      2.00000
    141       0.8040      2.00000
    142       0.8439      2.00000
    143       0.8476      2.00000
    144       0.8630      2.00000
    145       0.8922      2.00000
    146       0.9259      2.00000
    147       1.0021      2.00000
    148       1.0184      2.00000
    149       1.0218      2.00000
    150       1.0396      2.00000
    151       1.0501      2.00000
    152       1.1111      2.00000
    153       1.1578      2.00000
    154       1.1794      2.00000
    155       1.1843      2.00000
    156       1.1888      2.00000
    157       1.2198      2.00000
    158       1.2436      2.00000
    159       1.2772      2.00000
    160       1.3313      2.00000
    161       1.3868      2.00000
    162       1.4454      2.00000
    163       1.5067      2.00000
    164       1.5202      2.00000
    165       1.5638      2.00000
    166       1.5895      2.00000
    167       1.6364      2.00000
    168       1.6592      2.00000
    169       1.7864      2.00000
    170       1.8007      2.00000
    171       1.8895      2.00000
    172       1.9144      2.00000
    173       2.0070      2.00000
    174       2.0121      2.00000
    175       2.0432      2.00000
    176       2.0545      2.00000
    177       3.9316      0.00000
    178       4.0230      0.00000
    179       4.0664      0.00000
    180       4.1764      0.00000
    181       4.1972      0.00000
    182       4.3325      0.00000
    183       4.3550      0.00000
    184       4.4251      0.00000
    185       4.4561      0.00000
    186       4.4816      0.00000
    187       4.4990      0.00000
    188       4.5370      0.00000
    189       4.6079      0.00000
    190       4.6154      0.00000
    191       4.6319      0.00000
    192       4.6548      0.00000
    193       4.6803      0.00000
    194       4.6867      0.00000
    195       4.7280      0.00000
    196       4.7923      0.00000
    197       4.8145      0.00000
    198       4.8601      0.00000
    199       4.8903      0.00000
    200       4.9623      0.00000
    201       5.2360      0.00000
    202       5.3869      0.00000
    203       5.6218      0.00000
    204       5.7633      0.00000
    205       5.8515      0.00000
    206       5.8708      0.00000
    207       5.9925      0.00000
    208       6.0053      0.00000
    209       7.2974      0.00000
    210       7.3307      0.00000
    211       7.3994      0.00000

 k-point     3 :       0.5000   -0.0000   -0.0000
  band No.  band energies     occupation 
      1     -10.7768      2.00000
      2     -10.7167      2.00000
      3     -10.6696      2.00000
      4     -10.5003      2.00000
      5     -10.4465      2.00000
      6     -10.2265      2.00000
      7     -10.1688      2.00000
      8     -10.0338      2.00000
      9      -9.8718      2.00000
     10      -9.8693      2.00000
     11      -9.8454      2.00000
     12      -9.8223      2.00000
     13      -9.8130      2.00000
     14      -9.7577      2.00000
     15      -9.7398      2.00000
     16      -9.7146      2.00000
     17      -9.7066      2.00000
     18      -9.6810      2.00000
     19      -9.6714      2.00000
     20      -9.6649      2.00000
     21      -9.6411      2.00000
     22      -9.6376      2.00000
     23      -9.6127      2.00000
     24      -9.5906      2.00000
     25      -9.5859      2.00000
     26      -9.5829      2.00000
     27      -9.5499      2.00000
     28      -9.5445      2.00000
     29      -9.5223      2.00000
     30      -9.5208      2.00000
     31      -9.5022      2.00000
     32      -9.4991      2.00000
     33      -8.1980      2.00000
     34      -8.0853      2.00000
     35      -8.0742      2.00000
     36      -7.8472      2.00000
     37      -7.8241      2.00000
     38      -7.6642      2.00000
     39      -7.5939      2.00000
     40      -7.5546      2.00000
     41      -1.7339      2.00000
     42      -1.7140      2.00000
     43      -1.6661      2.00000
     44      -1.6450      2.00000
     45      -1.6309      2.00000
     46      -1.6122      2.00000
     47      -1.5619      2.00000
     48      -1.5413      2.00000
     49      -1.4884      2.00000
     50      -1.4174      2.00000
     51      -1.3890      2.00000
     52      -1.3522      2.00000
     53      -1.2816      2.00000
     54      -1.2785      2.00000
     55      -1.2559      2.00000
     56      -1.2223      2.00000
     57      -1.2115      2.00000
     58      -1.1594      2.00000
     59      -1.1491      2.00000
     60      -1.1284      2.00000
     61      -1.1212      2.00000
     62      -1.0709      2.00000
     63      -1.0148      2.00000
     64      -0.9875      2.00000
     65      -0.9844      2.00000
     66      -0.9610      2.00000
     67      -0.9356      2.00000
     68      -0.9274      2.00000
     69      -0.9121      2.00000
     70      -0.9080      2.00000
     71      -0.8969      2.00000
     72      -0.8727      2.00000
     73      -0.8352      2.00000
     74      -0.8245      2.00000
     75      -0.8113      2.00000
     76      -0.8018      2.00000
     77      -0.7777      2.00000
     78      -0.7750      2.00000
     79      -0.7540      2.00000
     80      -0.7366      2.00000
     81      -0.6653      2.00000
     82      -0.6415      2.00000
     83      -0.6275      2.00000
     84      -0.6019      2.00000
     85      -0.5989      2.00000
     86      -0.5640      2.00000
     87      -0.5418      2.00000
     88      -0.4844      2.00000
     89      -0.4781      2.00000
     90      -0.4711      2.00000
     91      -0.4558      2.00000
     92      -0.4377      2.00000
     93      -0.3961      2.00000
     94      -0.3915      2.00000
     95      -0.3740      2.00000
     96      -0.3533      2.00000
     97      -0.3252      2.00000
     98      -0.3177      2.00000
     99      -0.3080      2.00000
    100      -0.2997      2.00000
    101      -0.2765      2.00000
    102      -0.2723      2.00000
    103      -0.2004      2.00000
    104      -0.1739      2.00000
    105      -0.1576      2.00000
    106      -0.1453      2.00000
    107      -0.1329      2.00000
    108      -0.1291      2.00000
    109      -0.1150      2.00000
    110      -0.0861      2.00000
    111      -0.0850      2.00000
    112      -0.0208      2.00000
    113       0.0690      2.00000
    114       0.0825      2.00000
    115       0.1269      2.00000
    116       0.1710      2.00000
    117       0.2086      2.00000
    118       0.2358      2.00000
    119       0.2894      2.00000
    120       0.3201      2.00000
    121       0.3437      2.00000
    122       0.4151      2.00000
    123       0.4304      2.00000
    124       0.4494      2.00000
    125       0.4741      2.00000
    126       0.4907      2.00000
    127       0.5173      2.00000
    128       0.5423      2.00000
    129       0.5595      2.00000
    130       0.5718      2.00000
    131       0.5809      2.00000
    132       0.6020      2.00000
    133       0.6084      2.00000
    134       0.6669      2.00000
    135       0.6715      2.00000
    136       0.6784      2.00000
    137       0.7389      2.00000
    138       0.7539      2.00000
    139       0.7744      2.00000
    140       0.7891      2.00000
    141       0.7970      2.00000
    142       0.8274      2.00000
    143       0.8468      2.00000
    144       0.9004      2.00000
    145       0.9088      2.00000
    146       0.9480      2.00000
    147       0.9626      2.00000
    148       1.0004      2.00000
    149       1.0329      2.00000
    150       1.0649      2.00000
    151       1.0967      2.00000
    152       1.0970      2.00000
    153       1.1194      2.00000
    154       1.1227      2.00000
    155       1.1817      2.00000
    156       1.1944      2.00000
    157       1.2227      2.00000
    158       1.2668      2.00000
    159       1.2829      2.00000
    160       1.3100      2.00000
    161       1.4256      2.00000
    162       1.4451      2.00000
    163       1.4875      2.00000
    164       1.5085      2.00000
    165       1.6165      2.00000
    166       1.6210      2.00000
    167       1.6425      2.00000
[...]
    143       0.8814      2.00000
    144       0.8855      2.00000
    145       0.9522      2.00000
    146       0.9530      2.00000
    147       1.0462      2.00000
    148       1.0476      2.00000
    149       1.0705      2.00000
    150       1.0743      2.00000
    151       1.1060      2.00000
    152       1.1089      2.00000
    153       1.1282      2.00000
    154       1.1319      2.00000
    155       1.1962      2.00000
    156       1.1970      2.00000
    157       1.2423      2.00000
    158       1.2444      2.00000
    159       1.2975      2.00000
    160       1.2993      2.00000
    161       1.4831      2.00000
    162       1.4872      2.00000
    163       1.6110      2.00000
    164       1.6148      2.00000
    165       1.6251      2.00000
    166       1.6271      2.00000
    167       1.7129      2.00000
    168       1.7184      2.00000
    169       1.7871      2.00000
    170       1.7888      2.00000
    171       1.8703      2.00000
    172       1.8758      2.00000
    173       1.9016      2.00000
    174       1.9055      2.00000
    175       2.0204      2.00000
    176       2.0207      2.00000
    177       3.8397      0.00000
    178       3.8448      0.00000
    179       4.0241      0.00000
    180       4.0278      0.00000
    181       4.1346      0.00000
    182       4.1359      0.00000
    183       4.2851      0.00000
    184       4.2888      0.00000
    185       4.3552      0.00000
    186       4.3573      0.00000
    187       4.4584      0.00000
    188       4.4611      0.00000
    189       4.6349      0.00000
    190       4.6382      0.00000
    191       4.7106      0.00000
    192       4.7116      0.00000
    193       4.8019      0.00000
    194       4.8056      0.00000
    195       4.8524      0.00000
    196       4.8552      0.00000
    197       4.9184      0.00000
    198       4.9234      0.00000
    199       5.0466      0.00000
    200       5.0486      0.00000
    201       5.5915      0.00000
    202       5.5940      0.00000
    203       5.6303      0.00000
    204       5.6339      0.00000
    205       5.6673      0.00000
    206       5.6697      0.00000
    207       5.8220      0.00000
    208       5.8234      0.00000
    209       7.3516      0.00000
    210       7.3554      0.00000
    211       7.5242      0.00000

 k-point    36 :       0.5000    0.5000    0.5000
  band No.  band energies     occupation 
      1     -10.7422      2.00000
      2     -10.7372      2.00000
      3     -10.6124      2.00000
      4     -10.6109      2.00000
      5     -10.3562      2.00000
      6     -10.3550      2.00000
      7     -10.0896      2.00000
      8     -10.0847      2.00000
      9      -9.8804      2.00000
     10      -9.8735      2.00000
     11      -9.7905      2.00000
     12      -9.7817      2.00000
     13      -9.7613      2.00000
     14      -9.7585      2.00000
     15      -9.7200      2.00000
     16      -9.7187      2.00000
     17      -9.6985      2.00000
     18      -9.6937      2.00000
     19      -9.6728      2.00000
     20      -9.6706      2.00000
     21      -9.6675      2.00000
     22      -9.6667      2.00000
     23      -9.6047      2.00000
     24      -9.6038      2.00000
     25      -9.5830      2.00000
     26      -9.5825      2.00000
     27      -9.5553      2.00000
     28      -9.5534      2.00000
     29      -9.5204      2.00000
     30      -9.5186      2.00000
     31      -9.5104      2.00000
     32      -9.5079      2.00000
     33      -8.1650      2.00000
     34      -8.1632      2.00000
     35      -7.9716      2.00000
     36      -7.9704      2.00000
     37      -7.7333      2.00000
     38      -7.7307      2.00000
     39      -7.5572      2.00000
     40      -7.5528      2.00000
     41      -1.7562      2.00000
     42      -1.7494      2.00000
     43      -1.6507      2.00000
     44      -1.6483      2.00000
     45      -1.6048      2.00000
     46      -1.6014      2.00000
     47      -1.5141      2.00000
     48      -1.5101      2.00000
     49      -1.4578      2.00000
     50      -1.4567      2.00000
     51      -1.4319      2.00000
     52      -1.4255      2.00000
     53      -1.3505      2.00000
     54      -1.3482      2.00000
     55      -1.2571      2.00000
     56      -1.2533      2.00000
     57      -1.2394      2.00000
     58      -1.2336      2.00000
     59      -1.1128      2.00000
     60      -1.1082      2.00000
     61      -1.0158      2.00000
     62      -1.0117      2.00000
     63      -0.9821      2.00000
     64      -0.9752      2.00000
     65      -0.9642      2.00000
     66      -0.9634      2.00000
     67      -0.9373      2.00000
     68      -0.9339      2.00000
     69      -0.8854      2.00000
     70      -0.8800      2.00000
     71      -0.8541      2.00000
     72      -0.8493      2.00000
     73      -0.8371      2.00000
     74      -0.8353      2.00000
     75      -0.8114      2.00000
     76      -0.8091      2.00000
     77      -0.8027      2.00000
     78      -0.7960      2.00000
     79      -0.7143      2.00000
     80      -0.7109      2.00000
     81      -0.6644      2.00000
     82      -0.6608      2.00000
     83      -0.5973      2.00000
     84      -0.5923      2.00000
     85      -0.5621      2.00000
     86      -0.5578      2.00000
     87      -0.5206      2.00000
     88      -0.5178      2.00000
     89      -0.4852      2.00000
     90      -0.4841      2.00000
     91      -0.4463      2.00000
     92      -0.4452      2.00000
     93      -0.3711      2.00000
     94      -0.3686      2.00000
     95      -0.3531      2.00000
     96      -0.3509      2.00000
     97      -0.3270      2.00000
     98      -0.3237      2.00000
     99      -0.2810      2.00000
    100      -0.2792      2.00000
    101      -0.2759      2.00000
    102      -0.2743      2.00000
    103      -0.2246      2.00000
    104      -0.2219      2.00000
    105      -0.1806      2.00000
    106      -0.1782      2.00000
    107      -0.1521      2.00000
    108      -0.1493      2.00000
    109      -0.1111      2.00000
    110      -0.1096      2.00000
    111      -0.0506      2.00000
    112      -0.0455      2.00000
    113       0.0640      2.00000
    114       0.0658      2.00000
    115       0.1735      2.00000
    116       0.1761      2.00000
    117       0.2601      2.00000
    118       0.2620      2.00000
    119       0.3148      2.00000
    120       0.3176      2.00000
    121       0.3933      2.00000
    122       0.3936      2.00000
    123       0.3969      2.00000
    124       0.4013      2.00000
    125       0.4470      2.00000
    126       0.4499      2.00000
    127       0.4810      2.00000
    128       0.4848      2.00000
    129       0.5413      2.00000
    130       0.5448      2.00000
    131       0.5798      2.00000
    132       0.5824      2.00000
    133       0.6001      2.00000
    134       0.6080      2.00000
    135       0.6339      2.00000
    136       0.6350      2.00000
    137       0.7004      2.00000
    138       0.7041      2.00000
    139       0.7291      2.00000
    140       0.7339      2.00000
    141       0.7681      2.00000
    142       0.7696      2.00000
    143       0.9068      2.00000
    144       0.9117      2.00000
    145       0.9405      2.00000
    146       0.9414      2.00000
    147       1.0636      2.00000
    148       1.0678      2.00000
    149       1.0842      2.00000
    150       1.0871      2.00000
    151       1.1047      2.00000
    152       1.1088      2.00000
    153       1.1205      2.00000
    154       1.1239      2.00000
    155       1.2069      2.00000
    156       1.2071      2.00000
    157       1.2375      2.00000
    158       1.2393      2.00000
    159       1.3001      2.00000
    160       1.3021      2.00000
    161       1.5147      2.00000
    162       1.5202      2.00000
    163       1.6139      2.00000
    164       1.6184      2.00000
    165       1.6213      2.00000
    166       1.6227      2.00000
    167       1.7294      2.00000
    168       1.7355      2.00000
    169       1.8050      2.00000
    170       1.8083      2.00000
    171       1.8731      2.00000
    172       1.8797      2.00000
    173       1.8973      2.00000
    174       1.9007      2.00000
    175       2.0586      2.00000
    176       2.0592      2.00000
    177       3.7395      0.00000
    178       3.7450      0.00000
    179       3.9462      0.00000
    180       3.9503      0.00000
    181       4.0740      0.00000
    182       4.0760      0.00000
    183       4.2597      0.00000
    184       4.2615      0.00000
    185       4.3493      0.00000
    186       4.3504      0.00000
    187       4.4555      0.00000
    188       4.4581      0.00000
    189       4.6495      0.00000
    190       4.6527      0.00000
    191       4.7353      0.00000
    192       4.7369      0.00000
    193       4.8509      0.00000
    194       4.8546      0.00000
    195       4.8833      0.00000
    196       4.8851      0.00000
    197       4.9866      0.00000
    198       4.9882      0.00000
    199       5.0616      0.00000
    200       5.0660      0.00000
    201       5.5757      0.00000
    202       5.5795      0.00000
    203       5.6041      0.00000
    204       5.6057      0.00000
    205       5.6355      0.00000
    206       5.6381      0.00000
    207       5.8352      0.00000
    208       5.8373      0.00000
    209       7.2698      0.00000
    210       7.2730      0.00000
    211       7.5383      0.00000


--------------------------------------------------------------------------------------------------------


 soft charge-density along one line, spin component           1
         0         1         2         3         4         5         6         7         8         9
 total charge-density along one line
 
 pseudopotential strength for first ion, spin component:           1
 -6.432  -0.001   0.000  -0.000  -0.000  -6.568  -0.001   0.000
 -0.001  -6.437   0.000  -0.000   0.001  -0.001  -6.572   0.000
  0.000   0.000  -6.434  -0.001   0.001   0.000   0.000  -6.570
 -0.000  -0.000  -0.001  -6.440  -0.001  -0.000  -0.000  -0.001
 -0.000   0.001   0.001  -0.001  -6.424  -0.000   0.001   0.001
 -6.568  -0.001   0.000  -0.000  -0.000  -6.672  -0.001   0.000
 -0.001  -6.572   0.000  -0.000   0.001  -0.001  -6.677   0.000
  0.000   0.000  -6.570  -0.001   0.001   0.000   0.000  -6.674
 -0.000  -0.000  -0.001  -6.575  -0.001  -0.000  -0.000  -0.001
 -0.000   0.001   0.001  -0.001  -6.559  -0.000   0.001   0.001
  0.000  -0.000   0.000  -0.001   0.001   0.000  -0.000   0.000
  0.001  -0.000   0.000  -0.001   0.002   0.001  -0.000  -0.000
 -0.006  -0.006   0.001   0.000   0.002  -0.005  -0.006   0.001
  0.000  -0.002  -0.008  -0.006   0.000   0.000  -0.002  -0.008
 -0.002   0.000   0.003  -0.006  -0.006  -0.002   0.000   0.003
 -0.007  -0.008   0.001   0.000   0.002  -0.007  -0.007   0.001
  0.000  -0.002  -0.010  -0.007   0.000   0.000  -0.002  -0.009
 -0.002   0.000   0.004  -0.008  -0.007  -0.002   0.000   0.004
 total augmentation occupancy for first ion, spin component:           1
  2.274  -0.007  -0.048  -0.004  -0.009  -0.296   0.012   0.049   0.008   0.007  -0.061   0.014   0.017   0.004   0.003  -0.004
 -0.007   2.293   0.079  -0.000   0.133   0.012  -0.293  -0.066  -0.003  -0.124   0.069  -0.014   0.043  -0.007  -0.000  -0.005
 -0.048   0.079   3.834  -0.054  -0.088   0.049  -0.066  -1.692   0.054   0.094   0.174  -0.020   0.005  -0.222   0.052  -0.000
 -0.004  -0.000  -0.054   2.294  -0.108   0.008  -0.003   0.053  -0.320   0.108   0.132  -0.022   0.000   0.025   0.068  -0.000
 -0.009   0.133  -0.088  -0.108   4.327   0.007  -0.124   0.094   0.108  -2.152  -0.160   0.030   0.032   0.015  -0.100  -0.001
 -0.296   0.012   0.049   0.008   0.007   0.300  -0.016  -0.050  -0.011  -0.006   0.053  -0.013  -0.010  -0.003  -0.001   0.001
  0.012  -0.293  -0.066  -0.003  -0.124  -0.016   0.278   0.055   0.006   0.115  -0.062   0.015  -0.031   0.009   0.000   0.002
  0.049  -0.066  -1.692   0.053   0.094  -0.050   0.055   1.549  -0.053  -0.099  -0.155   0.027  -0.007   0.201  -0.050   0.001
  0.008  -0.003   0.054  -0.320   0.108  -0.011   0.006  -0.053   0.327  -0.107  -0.120   0.025  -0.000  -0.016  -0.052   0.000
  0.007  -0.124   0.094   0.108  -2.152  -0.006   0.115  -0.099  -0.107   1.980   0.139  -0.028  -0.030  -0.013   0.093   0.002
 -0.061   0.069   0.174   0.132  -0.160   0.053  -0.062  -0.155  -0.120   0.139   1.439  -0.308   0.015   0.048   0.039  -0.001
  0.014  -0.014  -0.020  -0.022   0.030  -0.013   0.015   0.027   0.025  -0.028  -0.308   0.070  -0.003  -0.011  -0.007   0.000
  0.017   0.043   0.005   0.000   0.032  -0.010  -0.031  -0.007  -0.000  -0.030   0.015  -0.003   0.087  -0.004   0.002  -0.006
  0.004  -0.007  -0.222   0.025   0.015  -0.003   0.009   0.201  -0.016  -0.013   0.048  -0.011  -0.004   0.079  -0.009   0.000
  0.003  -0.000   0.052   0.068  -0.100  -0.001   0.000  -0.050  -0.052   0.093   0.039  -0.007   0.002  -0.009   0.103  -0.000
 -0.004  -0.005  -0.000  -0.000  -0.001   0.001   0.002   0.001   0.000   0.002  -0.001   0.000  -0.006   0.000  -0.000   0.000
 -0.000  -0.001   0.009  -0.004  -0.001   0.000  -0.000  -0.013   0.001   0.001  -0.005   0.001   0.000  -0.005   0.001  -0.000
 -0.001  -0.000  -0.002  -0.006   0.003  -0.000   0.000   0.003   0.003  -0.006  -0.003   0.001  -0.000   0.001  -0.007   0.000


------------------------ aborting loop because EDIFF is reached ----------------------------------------


 


 total charge     
 
# of ion       s       p       d       tot
------------------------------------------
    1        0.241   0.152   9.320   9.713
    2        0.238   0.147   9.323   9.709
    3        0.241   0.151   9.320   9.713
    4        0.241   0.151   9.320   9.712
    5        0.253   0.158   9.313   9.723
    6        0.253   0.158   9.313   9.723
    7        0.241   0.152   9.320   9.713
    8        0.239   0.147   9.323   9.708
    9        1.833   1.401   0.135   3.369
   10        1.834   1.401   0.138   3.373
   11        1.834   1.401   0.138   3.373
   12        1.835   1.398   0.139   3.372
   13        1.834   1.401   0.138   3.373
   14        1.835   1.398   0.139   3.372
   15        1.834   1.401   0.138   3.374
   16        1.833   1.401   0.136   3.370
   17        1.515   2.743   0.015   4.272
   18        1.514   2.743   0.015   4.272
   19        1.516   2.744   0.015   4.274
   20        1.517   2.745   0.012   4.275
   21        1.517   2.746   0.013   4.276
   22        1.516   2.743   0.015   4.274
   23        1.513   2.748   0.016   4.277
   24        1.513   2.748   0.016   4.277
   25        1.517   2.746   0.013   4.275
   26        1.516   2.743   0.015   4.274
   27        1.514   2.743   0.015   4.272
   28        1.514   2.743   0.015   4.272
   29        1.513   2.747   0.016   4.276
   30        1.513   2.748   0.016   4.276
   31        1.516   2.743   0.015   4.274
   32        1.517   2.745   0.013   4.275
   33        1.518   2.742   0.011   4.271
   34        1.518   2.742   0.011   4.271
   35        1.518   2.742   0.012   4.272
   36        1.514   2.742   0.017   4.274
   37        1.514   2.742   0.017   4.274
   38        1.518   2.742   0.012   4.272
   39        1.518   2.743   0.012   4.273
   40        1.518   2.742   0.013   4.273
   41        1.514   2.742   0.017   4.274
   42        1.519   2.742   0.012   4.272
   43        1.518   2.742   0.011   4.271
   44        1.518   2.742   0.011   4.271
   45        1.518   2.743   0.012   4.273
   46        1.518   2.742   0.013   4.273
   47        1.518   2.742   0.012   4.272
   48        1.514   2.742   0.017   4.274
--------------------------------------------------
tot         65.136 100.214  76.095 241.445
 


--------------------------------------------------------------------------------------------------------



  FREE ENERGIE OF THE ION-ELECTRON SYSTEM (eV)
  ---------------------------------------------------
  free  energy   TOTEN  =      -119.96655208 eV

  energy  without entropy=     -119.96655208  energy(sigma->0) =     -119.96655208
 


--------------------------------------------------------------------------------------------------------




--------------------------------------------------------------------------------------------------------


 writing wavefunctions
     LOOP+:  cpu time  114.9891: real time  115.0394
    4ORBIT:  cpu time    0.0000: real time    0.0000
 


 total charge     
 
# of ion       s       p       d       tot
------------------------------------------
    1        0.241   0.152   9.320   9.713
    2        0.238   0.147   9.323   9.709
    3        0.241   0.151   9.320   9.713
    4        0.241   0.151   9.320   9.712
    5        0.253   0.158   9.313   9.723
    6        0.253   0.158   9.313   9.723
    7        0.241   0.152   9.320   9.713
    8        0.239   0.147   9.323   9.708
    9        1.833   1.401   0.135   3.369
   10        1.834   1.401   0.138   3.373
   11        1.834   1.401   0.138   3.373
   12        1.835   1.398   0.139   3.372
   13        1.834   1.401   0.138   3.373
   14        1.835   1.398   0.139   3.372
   15        1.834   1.401   0.138   3.374
   16        1.833   1.401   0.136   3.370
   17        1.515   2.743   0.015   4.272
   18        1.514   2.743   0.015   4.272
   19        1.516   2.744   0.015   4.274
   20        1.517   2.745   0.012   4.275
   21        1.517   2.746   0.013   4.276
   22        1.516   2.743   0.015   4.274
   23        1.513   2.748   0.016   4.277
   24        1.513   2.748   0.016   4.277
   25        1.517   2.746   0.013   4.275
   26        1.516   2.743   0.015   4.274
   27        1.514   2.743   0.015   4.272
   28        1.514   2.743   0.015   4.272
   29        1.513   2.747   0.016   4.276
   30        1.513   2.748   0.016   4.276
   31        1.516   2.743   0.015   4.274
   32        1.517   2.745   0.013   4.275
   33        1.518   2.742   0.011   4.271
   34        1.518   2.742   0.011   4.271
   35        1.518   2.742   0.012   4.272
   36        1.514   2.742   0.017   4.274
   37        1.514   2.742   0.017   4.274
   38        1.518   2.742   0.012   4.272
   39        1.518   2.743   0.012   4.273
   40        1.518   2.742   0.013   4.273
   41        1.514   2.742   0.017   4.274
   42        1.519   2.742   0.012   4.272
   43        1.518   2.742   0.011   4.271
   44        1.518   2.742   0.011   4.271
   45        1.518   2.743   0.012   4.273
   46        1.518   2.742   0.013   4.273
   47        1.518   2.742   0.012   4.272
   48        1.514   2.742   0.017   4.274
--------------------------------------------------
tot         65.136 100.214  76.095 241.445
 
 BZINTS: Fermi energy:    2.094348;  352.000000 electrons
         Band energy:-0.747284E+03;  BLOECHL correction:    0.000000

 total amount of memory used by VASP MPI-rank0  2761676. kBytes
=======================================================================

   base      :      30000. kBytes
   nonl-proj :     301348. kBytes
   fftplans  :      34720. kBytes
   grid      :      70000. kBytes
   one-center:        746. kBytes
   wavefun   :    2324862. kBytes
 
  
  
 General timing and accounting informations for this job:
 ========================================================
  
                  Total CPU time used (sec):      156.370
                            User time (sec):      151.297
                          System time (sec):        5.073
                         Elapsed time (sec):      157.207
  
                   Maximum memory used (kb):     4321832.
                   Average memory used (kb):           0.
  
                          Minor page faults:       420413
                          Major page faults:            0
                 Voluntary context switches:         2409
