 vasp.6.1.0 28Jan20 (build Jan 13 2021 21:44:47) complex                        
  
 executed on             LinuxIFC date 2021.09.12  19:26:46
 running on    9 total cores
 distrk:  each k-point on    1 cores,    9 groups
 distr:  one band on NCORE=   1 cores,    1 groups


--------------------------------------------------------------------------------------------------------


 INCAR:
 POTCAR:    PAW_PBE Ag 02Apr2005                  
 POTCAR:    PAW_PBE Bi 08Apr2002                  
 POTCAR:    PAW_PBE I 08Apr2002                   
 -----------------------------------------------------------------------------
|                                                                             |
|           W    W    AA    RRRRR   N    N  II  N    N   GGGG   !!!           |
|           W    W   A  A   R    R  NN   N  II  NN   N  G    G  !!!           |
|           W    W  A    A  R    R  N N  N  II  N N  N  G       !!!           |
|           W WW W  AAAAAA  RRRRR   N  N N  II  N  N N  G  GGG   !            |
|           WW  WW  A    A  R   R   N   NN  II  N   NN  G    G                |
|           W    W  A    A  R    R  N    N  II  N    N   GGGG   !!!           |
|                                                                             |
|     For optimal performance we recommend to set                             |
|       NCORE = 4 - approx SQRT(number of cores).                             |
|     NCORE specifies how many cores store one orbital (NPAR=cpu/NCORE).      |
|     This setting can greatly improve the performance of VASP for DFT.       |
|     The default, NCORE=1 might be grossly inefficient on modern             |
|     multi-core architectures or massively parallel machines. Do your        |
|     own testing!!!!                                                         |
|     Unfortunately you need to use the default for GW and RPA                |
|     calculations (for HF NCORE is supported but not extensively tested      |
|     yet).                                                                   |
|                                                                             |
 -----------------------------------------------------------------------------

 POTCAR:    PAW_PBE Ag 02Apr2005                  
   VRHFIN =Ag : s1 d10                                                                              
   LEXCH  = PE                                                                                      
   EATOM  =  1037.2675 eV,   76.2370 Ry                                                             
                                                                                                    
   TITEL  = PAW_PBE Ag 02Apr2005                                                                    
   LULTRA =        F    use ultrasoft PP ?                                                          
   IUNSCR =        1    unscreen: 0-lin 1-nonlin 2-no                                               
   RPACOR =    2.000    partial core radius                                                         
   POMASS =  107.868; ZVAL   =   11.000    mass and valenz                                          
   RCORE  =    2.500    outmost cutoff radius                                                       
   RWIGS  =    2.840; RWIGS  =    1.503    wigner-seitz radius (au A)                               
   ENMAX  =  249.844; ENMIN  =  187.383 eV                                                          
   ICORE  =        3    local potential                                                             
   LCOR   =        T    correct aug charges                                                         
   LPAW   =        T    paw PP                                                                      
   EAUG   =  412.496                                                                                
   DEXC   =    0.000                                                                                
   RMAX   =    2.560    core radius for proj-oper                                                   
   RAUG   =    1.300    factor for augmentation sphere                                              
   RDEP   =    2.576    radius for radial grids                                                     
   RDEPT  =    2.072    core radius for aug-charge                                                  
                                                                                                    
   Atomic configuration                                                                             
   12 entries                                                                                       
     n  l   j            E        occ.                                                              
     1  0  0.50    -25324.9161   2.0000                                                             
     2  0  0.50     -3728.5341   2.0000                                                             
     2  1  1.50     -3344.0404   6.0000                                                             
     3  0  0.50      -683.5581   2.0000                                                             
     3  1  1.50      -557.3225   6.0000                                                             
     3  2  2.50      -358.3853  10.0000                                                             
     4  0  0.50       -95.0341   2.0000                                                             
     4  1  1.50       -58.5511   6.0000                                                             
     4  2  2.50        -7.4440  10.0000                                                             
     5  0  0.50        -4.4045   1.0000                                                             
     5  1  0.50        -1.3606   0.0000                                                             
     4  3  2.50        -1.3606   0.0000                                                             
   Description                                                                                      
     l       E           TYP  RCUT    TYP  RCUT                                                     
     2     -7.4439781     23  2.400                                                                 
     2     -8.8045607     23  2.400                                                                 
     0     -4.4044681     23  2.400                                                                 
     0      1.9520038     23  2.400                                                                 
     1     -1.3605826     23  2.500                                                                 
     1     27.2116520     23  2.500                                                                 
     3     -4.0817478     23  2.400                                                                 
  local pseudopotential read in
  partial core-charges read in
  partial kinetic energy density read in
  atomic valenz-charges read in
  non local Contribution for L=           2  read in
    real space projection operators read in
  non local Contribution for L=           2  read in
    real space projection operators read in
  non local Contribution for L=           0  read in
    real space projection operators read in
  non local Contribution for L=           0  read in
    real space projection operators read in
  non local Contribution for L=           1  read in
    real space projection operators read in
  non local Contribution for L=           1  read in
    real space projection operators read in
    PAW grid and wavefunctions read in
 
   number of l-projection  operators is LMAX  =           6
   number of lm-projection operators is LMMAX =          18
 
 POTCAR:    PAW_PBE Bi 08Apr2002                  
   VRHFIN =Bi:                                                                                      
   LEXCH  = PE                                                                                      
   EATOM  =   150.8133 eV,   11.0845 Ry                                                             
                                                                                                    
   TITEL  = PAW_PBE Bi 08Apr2002                                                                    
   LULTRA =        F    use ultrasoft PP ?                                                          
   IUNSCR =        1    unscreen: 0-lin 1-nonlin 2-no                                               
   RPACOR =    2.200    partial core radius                                                         
   POMASS =  208.980; ZVAL   =    5.000    mass and valenz                                          
   RCORE  =    3.000    outmost cutoff radius                                                       
   RWIGS  =    3.090; RWIGS  =    1.635    wigner-seitz radius (au A)                               
   ENMAX  =  105.037; ENMIN  =   78.777 eV                                                          
   ICORE  =        3    local potential                                                             
   LCOR   =        T    correct aug charges                                                         
   LPAW   =        T    paw PP                                                                      
   EAUG   =  265.427                                                                                
   DEXC   =    0.000                                                                                
   RMAX   =    3.067    core radius for proj-oper                                                   
   RAUG   =    1.300    factor for augmentation sphere                                              
   RDEP   =    3.012    radius for radial grids                                                     
   RDEPT  =    2.604    core radius for aug-charge                                                  
                                                                                                    
   Atomic configuration                                                                             
   17 entries                                                                                       
     n  l   j            E        occ.                                                              
     1  0  0.50    -90639.6582   2.0000                                                             
     2  0  0.50    -16282.4667   2.0000                                                             
     2  1  1.50    -13922.8287   6.0000                                                             
     3  0  0.50     -3930.4763   2.0000                                                             
     3  1  1.50     -3256.7013   6.0000                                                             
     3  2  2.50     -2581.6169  10.0000                                                             
     4  0  0.50      -902.2614   2.0000                                                             
     4  1  1.50      -681.5915   6.0000                                                             
     4  2  2.50      -429.8249  10.0000                                                             
     4  3  3.50      -152.6004  14.0000                                                             
     5  0  0.50      -157.7156   2.0000                                                             
     5  1  1.50       -95.8054   6.0000                                                             
     5  2  2.50       -27.0806  10.0000                                                             
     6  0  0.50       -14.4732   2.0000                                                             
     6  1  1.50        -4.5702   3.0000                                                             
     6  2  2.50        -2.7212   0.0000                                                             
     5  3  2.50        -2.7212   0.0000                                                             
   Description                                                                                      
     l       E           TYP  RCUT    TYP  RCUT                                                     
     0    -14.4732299     23  3.000                                                                 
     0    -12.2452434     23  3.000                                                                 
     1     -4.5701666     23  3.000                                                                 
     1    -13.6058260     23  3.000                                                                 
     2     -2.7211652     23  3.000                                                                 
     3     -1.3605826      7  3.000                                                                 
  local pseudopotential read in
  partial core-charges read in
  partial kinetic energy density read in
  kinetic energy density of atom read in
  atomic valenz-charges read in
  non local Contribution for L=           0  read in
    real space projection operators read in
  non local Contribution for L=           0  read in
    real space projection operators read in
  non local Contribution for L=           1  read in
    real space projection operators read in
  non local Contribution for L=           1  read in
    real space projection operators read in
  non local Contribution for L=           2  read in
    real space projection operators read in
    PAW grid and wavefunctions read in
 
   number of l-projection  operators is LMAX  =           5
   number of lm-projection operators is LMMAX =          13
 
 POTCAR:    PAW_PBE I 08Apr2002                   
   VRHFIN =I : s2p5                                                                                 
   LEXCH  = PE                                                                                      
   EATOM  =   315.8678 eV,   23.2156 Ry                                                             
                                                                                                    
   TITEL  = PAW_PBE I 08Apr2002                                                                     
   LULTRA =        F    use ultrasoft PP ?                                                          
   IUNSCR =        1    unscreen: 0-lin 1-nonlin 2-no                                               
   RPACOR =    2.200    partial core radius                                                         
   POMASS =  126.904; ZVAL   =    7.000    mass and valenz                                          
   RCORE  =    2.300    outmost cutoff radius                                                       
   RWIGS  =    2.810; RWIGS  =    1.487    wigner-seitz radius (au A)                               
   ENMAX  =  175.647; ENMIN  =  131.735 eV                                                          
   ICORE  =        3    local potential                                                             
   LCOR   =        T    correct aug charges                                                         
   LPAW   =        T    paw PP                                                                      
   EAUG   =  370.139                                                                                
   DEXC   =    0.000                                                                                
   RMAX   =    2.359    core radius for proj-oper                                                   
   RAUG   =    1.300    factor for augmentation sphere                                              
   RDEP   =    2.392    radius for radial grids                                                     
   RDEPT  =    2.170    core radius for aug-charge                                                  
                                                                                                    
   Atomic configuration                                                                             
   13 entries                                                                                       
     n  l   j            E        occ.                                                              
     1  0  0.50    -32976.3739   2.0000                                                             
     2  0  0.50     -5094.5933   2.0000                                                             
     2  1  1.50     -4572.0131   6.0000                                                             
     3  0  0.50     -1028.2813   2.0000                                                             
     3  1  1.50      -859.0250   6.0000                                                             
     3  2  2.50      -605.7620  10.0000                                                             
     4  0  0.50      -180.5540   2.0000                                                             
     4  1  1.50      -127.5306   6.0000                                                             
     4  2  2.50       -50.2720  10.0000                                                             
     5  0  0.50       -17.4058   2.0000                                                             
     5  1  0.50        -7.0851   5.0000                                                             
     5  2  1.50        -7.0750   0.0000                                                             
     4  3  2.50        -7.0750   0.0000                                                             
   Description                                                                                      
     l       E           TYP  RCUT    TYP  RCUT                                                     
     0    -17.4058016     23  2.300                                                                 
     0    -18.7663842     23  2.300                                                                 
     1     -7.0850686     23  2.300                                                                 
     1     -4.2150896     23  2.300                                                                 
     2     -7.0750295     23  2.300                                                                 
     3     -1.3605826     23  2.300                                                                 
  local pseudopotential read in
  partial core-charges read in
  partial kinetic energy density read in
  atomic valenz-charges read in
  non local Contribution for L=           0  read in
    real space projection operators read in
  non local Contribution for L=           0  read in
    real space projection operators read in
  non local Contribution for L=           1  read in
    real space projection operators read in
  non local Contribution for L=           1  read in
    real space projection operators read in
  non local Contribution for L=           2  read in
    real space projection operators read in
    PAW grid and wavefunctions read in
 
   number of l-projection  operators is LMAX  =           5
   number of lm-projection operators is LMMAX =          13
 
 -----------------------------------------------------------------------------
|                                                                             |
|               ----> ADVICE to this user running VASP <----                  |
|                                                                             |
|     You have a (more or less) 'large supercell' and for larger cells it     |
|     might be more efficient to use real-space projection operators.         |
|     Therefore, try LREAL= Auto in the INCAR file.                           |
|     Mind: For very accurate calculation, you might also keep the            |
|     reciprocal projection scheme (i.e. LREAL=.FALSE.).                      |
|                                                                             |
 -----------------------------------------------------------------------------

  PAW_PBE Ag 02Apr2005                  :
 energy of atom  1       EATOM=-1037.2675
 kinetic energy error for atom=    0.0686 (will be added to EATOM!!)
  PAW_PBE Bi 08Apr2002                  :
 energy of atom  2       EATOM= -150.8133
 kinetic energy error for atom=    0.0004 (will be added to EATOM!!)
  PAW_PBE I 08Apr2002                   :
 energy of atom  3       EATOM= -315.8678
 kinetic energy error for atom=    0.0044 (will be added to EATOM!!)
 
 
 POSCAR: Generation Seed Number
  positions in direct lattice
  velocities in cartesian coordinates
 exchange correlation table for  LEXCH =        8
   RHO(1)=    0.500       N(1)  =     2000
   RHO(2)=  100.500       N(2)  =     4000
 


--------------------------------------------------------------------------------------------------------


 ion  position               nearest neighbor table
   1  0.240  0.275  0.006-  25 2.94  19 2.98  41 3.07  29 3.14  42 3.17  17 3.59
   2  0.753  0.749  0.002-  47 3.02  27 3.03  48 3.06  31 3.10  23 3.26  21 3.28
   3  0.998  0.249  0.247-  45 3.02  25 3.04  41 3.06  26 3.10  33 3.26  35 3.28
   4  0.994  0.725  0.760-  27 2.94  36 2.98  48 3.07  28 3.15  44 3.16  34 3.59
   5  0.525  1.000  0.475-  30 2.95  32 2.96  22 2.97  37 2.97
   6  0.512  0.775  0.246-  47 2.94  37 2.98  31 3.06  32 3.13  43 3.21  39 3.58
   7  0.225  0.500  0.775-  42 2.95  44 2.95  36 2.97  19 2.97
   8  0.755  0.225  0.489-  45 2.94  22 2.98  26 3.06  30 3.13  46 3.19  24 3.59
   9  0.000  0.000  0.000-  25 3.11  27 3.11  21 3.12  33 3.12  34 3.14  17 3.14
  10  0.499  0.504  0.002-  31 3.03  19 3.06  39 3.12  40 3.14  29 3.20  23 3.20
  11  0.998  0.496  0.502-  26 3.03  36 3.06  24 3.13  20 3.14  35 3.20  28 3.20
  12  0.250  0.003  0.249-  41 3.04  37 3.06  17 3.13  18 3.14  43 3.19  33 3.20
  13  0.751  0.997  0.750-  48 3.04  22 3.06  34 3.13  38 3.14  46 3.19  21 3.20
  14  0.750  0.500  0.250-  35 3.11  23 3.11  45 3.11  47 3.11  24 3.14  39 3.14
  15  0.498  0.250  0.748-  42 3.07  30 3.07  40 3.14  38 3.14  46 3.18  29 3.18
  16  0.252  0.750  0.502-  44 3.07  32 3.08  20 3.14  18 3.14  43 3.18  28 3.18
  17  0.246  0.993  0.004-  12 3.13   9 3.14   1 3.59
  18  0.240  0.996  0.495-  16 3.14  12 3.14
  19  0.259  0.508  0.006-   7 2.97   1 2.98  10 3.06
  20  0.245  0.504  0.489-  16 3.14  11 3.14
  21  0.755  0.007  0.001-   9 3.12  13 3.20   2 3.28
  22  0.756  0.992  0.510-   5 2.97   8 2.98  13 3.06
  23  0.750  0.493  0.005-  14 3.11  10 3.20   2 3.26
  24  0.753  0.507  0.497-  11 3.13  14 3.14   8 3.59
  25  0.011  0.244  0.009-   1 2.94   3 3.04   9 3.11
  26  0.993  0.258  0.490-  11 3.03   8 3.06   3 3.10
  27  0.991  0.756  0.989-   4 2.94   2 3.03   9 3.11
  28  0.002  0.747  0.514-   4 3.15  16 3.18  11 3.20
  29  0.486  0.253  0.998-   1 3.14  15 3.18  10 3.20
  30  0.510  0.229  0.508-   5 2.95  15 3.07   8 3.13
  31  0.510  0.741  0.007-  10 3.03   6 3.06   2 3.10
  32  0.492  0.771  0.490-   5 2.96  16 3.08   6 3.13
  33  0.999  0.993  0.245-   9 3.12  12 3.20   3 3.26
  34  0.997  0.007  0.754-  13 3.13   9 3.14   4 3.59
  35  0.995  0.507  0.250-  14 3.11  11 3.20   3 3.28
  36  0.994  0.492  0.742-   7 2.97   4 2.98  11 3.06
  37  0.491  0.008  0.244-   5 2.97   6 2.98  12 3.06
  38  0.505  0.004  0.761-  15 3.14  13 3.14
  39  0.504  0.493  0.247-  10 3.12  14 3.14   6 3.58
  40  0.511  0.496  0.756-  15 3.14  10 3.14
  41  0.238  0.241  0.245-  12 3.04   3 3.06   1 3.07
  42  0.258  0.271  0.758-   7 2.95  15 3.07   1 3.17
  43  0.261  0.753  0.253-  16 3.18  12 3.19   6 3.21
  44  0.242  0.729  0.743-   7 2.95  16 3.07   4 3.16
  45  0.761  0.256  0.260-   8 2.94   3 3.02  14 3.11
  46  0.748  0.247  0.739-  15 3.18  13 3.19   8 3.19
  47  0.741  0.744  0.239-   6 2.94   2 3.02  14 3.11
  48  0.755  0.758  0.762-  13 3.04   2 3.06   4 3.07
 
 -----------------------------------------------------------------------------
|                                                                             |
|           W    W    AA    RRRRR   N    N  II  N    N   GGGG   !!!           |
|           W    W   A  A   R    R  NN   N  II  NN   N  G    G  !!!           |
|           W    W  A    A  R    R  N N  N  II  N N  N  G       !!!           |
|           W WW W  AAAAAA  RRRRR   N  N N  II  N  N N  G  GGG   !            |
|           WW  WW  A    A  R   R   N   NN  II  N   NN  G    G                |
|           W    W  A    A  R    R  N    N  II  N    N   GGGG   !!!           |
|                                                                             |
|     The determination of the symmetry of your systems shows a strong        |
|     dependence on the tolerance parameter SYMPREC. This is often the        |
|     result of "noise" in the structural parameters (lattice vectors         |
|     and/or ionic positions). Set NWRITE=3 for more details.                 |
|                                                                             |
 -----------------------------------------------------------------------------

  LATTYP: Found a base centered monoclinic cell.
 ALAT       =    31.1722465769
 B/A-ratio  =     0.5772928022
 C/A-ratio  =     0.7070914308
 COS(beta)  =    -0.9427830301
  
  Lattice vectors:
  
 A1 = (  12.7248367018, -12.7265012911,  -0.0000803339)
 A2 = (   0.0000985148, -12.7267798795,  12.7246808398)
 A3 = ( -12.7260316951,  12.7255843393, -12.7256042869)


Analysis of symmetry for initial positions (statically):
=====================================================================
 Subroutine PRICEL returns:
 Original cell was already a primitive cell.
 

 Routine SETGRP: Setting up the symmetry group for a 
 base centered monoclinic supercell.


 Subroutine GETGRP returns: Found  1 space group operations
 (whereof  1 operations were pure point group operations)
 out of a pool of  4 trial point group operations.


The static configuration has the point symmetry C_1 .


Analysis of symmetry for dynamics (positions and initial velocities):
=====================================================================
 Subroutine PRICEL returns:
 Original cell was already a primitive cell.
 

 Routine SETGRP: Setting up the symmetry group for a 
 base centered monoclinic supercell.


 Subroutine GETGRP returns: Found  1 space group operations
 (whereof  1 operations were pure point group operations)
 out of a pool of  4 trial point group operations.


The dynamic configuration has the point symmetry C_1 .


 Subroutine INISYM returns: Found  1 space group operations
 (whereof  1 operations are pure point group operations),
 and found     1 'primitive' translations


----------------------------------------------------------------------------------------

                                     Primitive cell                                     

  volume of cell :    2061.2022

  direct lattice vectors                    reciprocal lattice vectors
    12.725933180  0.001195540  0.000923447     0.078579700 -0.000006769 -0.000007378
     0.001096479 12.727696831  0.001003781    -0.000007381  0.078568812 -0.000005661
     0.001194993  0.000916952 12.725684621    -0.000005702 -0.000006197  0.078581235

  length of vectors
    12.725933270 12.727696918 12.725684710     0.078579701  0.078568812  0.078581235

  position of ions in fractional coordinates (direct lattice)
     0.240247469  0.274858914  0.006331463
     0.753046930  0.749414090  0.002241184
     0.998166521  0.249089107  0.247293470
     0.994085816  0.725004468  0.760451492
     0.524978067  0.999941567  0.475186145
     0.512212416  0.774665777  0.245546177
     0.224646397  0.499905291  0.775470231
     0.755162200  0.224918703  0.488663417
     0.000125087  0.000004054  0.000094829
     0.498676681  0.503733276  0.002252803
     0.998066545  0.496080431  0.501607527
     0.250429496  0.002940460  0.249006538
     0.751198535  0.996799785  0.749927276
     0.750478284  0.499869297  0.249975582
     0.497833656  0.250188239  0.748214930
     0.251800806  0.749718572  0.502367458
     0.246448987  0.993115963  0.003575649
     0.239604970  0.995901841  0.495431506
     0.258516761  0.508389277  0.006202338
     0.244611487  0.503744559  0.489449082
     0.755306914  0.006927929  0.000894213
     0.755624246  0.991678426  0.509553645
     0.750068155  0.493233598  0.005384976
     0.752770177  0.506554437  0.496516219
     0.011391664  0.244260288  0.009119021
     0.993499137  0.258368222  0.490341402
     0.991029339  0.755725100  0.989256399
     0.001977948  0.747304867  0.514170261
     0.485916217  0.252546925  0.998148417
     0.509854854  0.229275422  0.507829158
     0.510005876  0.741487236  0.007131732
     0.492258886  0.770510548  0.490287028
     0.999324357  0.993298292  0.244970728
     0.996692839  0.006635631  0.753784503
     0.994910231  0.506594611  0.250263143
     0.993902682  0.491515647  0.741801134
     0.490742662  0.007895617  0.244477365
     0.504819076  0.004012471  0.760638905
     0.503823375  0.493283464  0.247483491
     0.510883497  0.496170681  0.755616977
     0.238130293  0.241301623  0.245420599
     0.257755873  0.271287494  0.758071072
     0.261174659  0.752763519  0.252609675
     0.241810970  0.728662682  0.742546449
     0.761390643  0.255639714  0.259656927
     0.747714293  0.247019206  0.738617351
     0.741066942  0.744153723  0.239071955
     0.754964787  0.758458848  0.762314859

  ion indices of the primitive-cell ions
   primitive index   ion index
                 1           1
                 2           2
                 3           3
                 4           4
                 5           5
                 6           6
                 7           7
                 8           8
                 9           9
                10          10
                11          11
                12          12
                13          13
                14          14
                15          15
                16          16
                17          17
                18          18
                19          19
                20          20
                21          21
                22          22
                23          23
                24          24
                25          25
                26          26
                27          27
                28          28
                29          29
                30          30
                31          31
                32          32
                33          33
                34          34
                35          35
                36          36
                37          37
                38          38
                39          39
                40          40
                41          41
                42          42
                43          43
                44          44
                45          45
                46          46
                47          47
                48          48

----------------------------------------------------------------------------------------

 
 
 KPOINTS: agbii                                   

Automatic generation of k-mesh.
Space group operators:
 irot       det(A)        alpha          n_x          n_y          n_z        tau_x        tau_y        tau_z
    1     1.000000     0.000001     1.000000     0.000000     0.000000     0.000000     0.000000     0.000000
 TETIRR: Found    192 inequivalent tetrahedra from      384
 
 Subroutine IBZKPT returns following result:
 ===========================================
 
 Found     36 irreducible k-points:
 
 Following reciprocal coordinates:
            Coordinates               Weight
  0.000000  0.000000  0.000000      1.000000
  0.250000  0.000000 -0.000000      2.000000
 -0.000000  0.000000 -0.250000      2.000000
  0.500000  0.000000 -0.000000      1.000000
  0.000000 -0.000000  0.500000      1.000000
 -0.000000  0.250000  0.000000      2.000000
  0.250000  0.250000  0.000000      2.000000
  0.000000 -0.250000 -0.250000      2.000000
  0.500000  0.250000 -0.000000      2.000000
  0.000000 -0.250000  0.500000      2.000000
 -0.250000  0.250000 -0.000000      2.000000
 -0.000000 -0.250000  0.250000      2.000000
  0.000000  0.500000 -0.000000      1.000000
  0.250000  0.500000  0.000000      2.000000
 -0.000000  0.500000 -0.250000      2.000000
  0.500000  0.500000  0.000000      1.000000
  0.000000  0.500000  0.500000      1.000000
  0.250000 -0.000000  0.250000      2.000000
  0.500000 -0.000000  0.250000      2.000000
 -0.250000 -0.000000  0.500000      2.000000
 -0.250000 -0.000000  0.250000      2.000000
  0.250000  0.250000  0.250000      2.000000
  0.500000  0.250000  0.250000      2.000000
 -0.250000 -0.250000  0.500000      2.000000
 -0.250000  0.250000  0.250000      2.000000
 -0.250000 -0.250000  0.250000      2.000000
  0.250000  0.500000  0.250000      2.000000
  0.500000  0.500000  0.250000      2.000000
 -0.250000  0.500000  0.500000      2.000000
 -0.250000  0.500000  0.250000      2.000000
  0.250000 -0.250000  0.250000      2.000000
  0.500000 -0.250000  0.250000      2.000000
 -0.250000  0.250000  0.500000      2.000000
  0.500000 -0.000000  0.500000      1.000000
  0.500000  0.250000  0.500000      2.000000
  0.500000  0.500000  0.500000      1.000000
 
 Following cartesian coordinates:
            Coordinates               Weight
  0.000000  0.000000  0.000000      1.000000
  0.019645 -0.000002 -0.000002      2.000000
  0.000001  0.000002 -0.019645      2.000000
  0.039290 -0.000003 -0.000004      1.000000
 -0.000003 -0.000003  0.039291      1.000000
 -0.000002  0.019642 -0.000001      2.000000
  0.019643  0.019641 -0.000003      2.000000
  0.000003 -0.019641 -0.019644      2.000000
  0.039288  0.019639 -0.000005      2.000000
 -0.000001 -0.019645  0.039292      2.000000
 -0.019647  0.019644  0.000000      2.000000
  0.000000 -0.019644  0.019647      2.000000
 -0.000004  0.039284 -0.000003      1.000000
  0.019641  0.039283 -0.000005      2.000000
 -0.000002  0.039286 -0.019648      2.000000
  0.039286  0.039281 -0.000007      1.000000
 -0.000007  0.039281  0.039288      1.000000
  0.019643 -0.000003  0.019643      2.000000
  0.039288 -0.000005  0.019642      2.000000
 -0.019648 -0.000001  0.039292      2.000000
 -0.019646  0.000000  0.019647      2.000000
  0.019642  0.019639  0.019642      2.000000
  0.039287  0.019637  0.019640      2.000000
 -0.019646 -0.019644  0.039294      2.000000
 -0.019648  0.019642  0.019646      2.000000
 -0.019645 -0.019642  0.019649      2.000000
  0.019640  0.039281  0.019641      2.000000
  0.039285  0.039279  0.019639      2.000000
 -0.019651  0.039283  0.039290      2.000000
 -0.019650  0.039285  0.019644      2.000000
  0.019645 -0.019645  0.019645      2.000000
  0.039290 -0.019647  0.019643      2.000000
 -0.019650  0.019641  0.039291      2.000000
  0.039287 -0.000006  0.039287      1.000000
  0.039285  0.019636  0.039286      2.000000
  0.039283  0.039278  0.039284      1.000000
 


--------------------------------------------------------------------------------------------------------




 Dimension of arrays:
   k-points           NKPTS =     36   k-points in BZ     NKDIM =     36   number of bands    NBANDS=    211
   number of dos      NEDOS =   3000   number of ions     NIONS =     48
   non local maximal  LDIM  =      6   non local SUM 2l+1 LMDIM =     18
   total plane-waves  NPLWV = 125000
   max r-space proj   IRMAX =      1   max aug-charges    IRDMAX=   5976
   dimension x,y,z NGX =    50 NGY =   50 NGZ =   50
   dimension x,y,z NGXF=   100 NGYF=  100 NGZF=  100
   support grid    NGXF=   100 NGYF=  100 NGZF=  100
   ions per type =               8   8  32
   NGX,Y,Z   is equivalent  to a cutoff of   6.53,  6.53,  6.53 a.u.
   NGXF,Y,Z  is equivalent  to a cutoff of  13.06, 13.06, 13.06 a.u.

 SYSTEM =  unknown system                          
 POSCAR =  Generation Seed Number                  

 Startparameter for this run:
   NWRITE =      2    write-flag & timer
   PREC   = normal    normal or accurate (medium, high low for compatibility)
   ISTART =      1    job   : 0-new  1-cont  2-samecut
   ICHARG =      1    charge: 1-file 2-atom 10-const
   ISPIN  =      1    spin polarized calculation?
   LNONCOLLINEAR =      F non collinear calculations
   LSORBIT =      F    spin-orbit coupling
   INIWAV =      1    electr: 0-lowe 1-rand  2-diag
   LASPH  =      F    aspherical Exc in radial PAW
   METAGGA=      F    non-selfconsistent MetaGGA calc.

 Electronic Relaxation 1
   ENCUT  =  250.0 eV  18.37 Ry    4.29 a.u.  16.41 16.41 16.41*2*pi/ulx,y,z
   ENINI  =  250.0     initial cutoff
   ENAUG  =  412.5 eV  augmentation charge cutoff
   NELM   =     60;   NELMIN=  2; NELMDL=  0     # of ELM steps 
   EDIFF  = 0.1E-05   stopping-criterion for ELM
   LREAL  =      F    real-space projection
   NLSPLINE    = F    spline interpolate recip. space projectors
   LCOMPAT=      F    compatible to vasp.4.4
   GGA_COMPAT  = T    GGA compatible to vasp.4.4-vasp.4.6
   LMAXPAW     = -100 max onsite density
   LMAXMIX     =    4 max onsite mixed and CHGCAR
   VOSKOWN=      0    Vosko Wilk Nusair interpolation
   ROPT   =    0.00000   0.00000   0.00000
 Ionic relaxation
   EDIFFG = -.1E-01   stopping-criterion for IOM
   NSW    =      0    number of steps for IOM
   NBLOCK =      1;   KBLOCK =      1    inner block; outer block 
   IBRION =     -1    ionic relax: 0-MD 1-quasi-New 2-CG
   NFREE  =      0    steps in history (QN), initial steepest desc. (CG)
   ISIF   =     -1    stress and relaxation
   IWAVPR =     10    prediction:  0-non 1-charg 2-wave 3-comb
   ISYM   =      2    0-nonsym 1-usesym 2-fastsym
   LCORR  =      T    Harris-Foulkes like correction to forces

   POTIM  = 0.5000    time-step for ionic-motion
   TEIN   =    0.0    initial temperature
   TEBEG  =    0.0;   TEEND  =   0.0 temperature during run
   SMASS  =  -3.00    Nose mass-parameter (am)
   estimated Nose-frequenzy (Omega)   =  0.10E-29 period in steps = 0.13E+47 mass=  -0.370E-26a.u.
   SCALEE = 1.0000    scale energy and forces
   NPACO  =    256;   APACO  = 16.0  distance and # of slots for P.C.
   PSTRESS=    0.0 pullay stress

  Mass of Ions in am
   POMASS = 107.87208.98126.90
  Ionic Valenz
   ZVAL   =  11.00  5.00  7.00
  Atomic Wigner-Seitz radii
   RWIGS  =  -1.00 -1.00 -1.00
  virtual crystal weights 
   VCA    =   1.00  1.00  1.00
   NELECT =     352.0000    total number of electrons
   NUPDOWN=      -1.0000    fix difference up-down

 DOS related values:
   EMIN   =  10.00;   EMAX   =-10.00  energy-range for DOS
   EFERMI =   0.00
   ISMEAR =    -5;   SIGMA  =   0.20  broadening in eV -4-tet -1-fermi 0-gaus

 Electronic relaxation 2 (details)
   IALGO  =     38    algorithm
   LDIAG  =      T    sub-space diagonalisation (order eigenvalues)
   LSUBROT=      F    optimize rotation matrix (better conditioning)
   TURBO    =      0    0=normal 1=particle mesh
   IRESTART =      0    0=no restart 2=restart with 2 vectors
   NREBOOT  =      0    no. of reboots
   NMIN     =      0    reboot dimension
   EREF     =   0.00    reference energy to select bands
   IMIX   =      4    mixing-type and parameters
     AMIX     =   0.40;   BMIX     =  1.00
     AMIX_MAG =   1.60;   BMIX_MAG =  1.00
     AMIN     =   0.10
     WC   =   100.;   INIMIX=   1;  MIXPRE=   1;  MAXMIX= -45

 Intra band minimization:
   WEIMIN = 0.0000     energy-eigenvalue tresh-hold
   EBREAK =  0.12E-08  absolut break condition
   DEPER  =   0.30     relativ break condition  

   TIME   =   0.40     timestep for ELM

  volume/ion in A,a.u.               =      42.94       289.78
  Fermi-wavevector in a.u.,A,eV,Ry     =   0.908271  1.716384 11.224214  0.824956
  Thomas-Fermi vector in A             =   2.032178
 
 Write flags
   LWAVE        =      T    write WAVECAR
   LDOWNSAMPLE  =      F    k-point downsampling of WAVECAR
   LCHARG       =      T    write CHGCAR
   LVTOT        =      F    write LOCPOT, total local potential
   LVHAR        =      F    write LOCPOT, Hartree potential only
   LELF         =      F    write electronic localiz. function (ELF)
   LORBIT       =     10    0 simple, 1 ext, 2 COOP (PROOUT), +10 PAW based schemes


 Dipole corrections
   LMONO  =      F    monopole corrections only (constant potential shift)
   LDIPOL =      F    correct potential (dipole corrections)
   IDIPOL =      0    1-x, 2-y, 3-z, 4-all directions 
   EPSILON=  1.0000000 bulk dielectric constant

 Exchange correlation treatment:
   GGA     =    --    GGA type
   LEXCH   =     8    internal setting for exchange type
   VOSKOWN=      0    Vosko Wilk Nusair interpolation
   LHFCALC =     F    Hartree Fock is set to
   LHFONE  =     F    Hartree Fock one center treatment
   AEXX    =    0.0000 exact exchange contribution

 Linear response parameters
   LEPSILON=     F    determine dielectric tensor
   LRPA    =     F    only Hartree local field effects (RPA)
   LNABLA  =     F    use nabla operator in PAW spheres
   LVEL    =     F    velocity operator in full k-point grid
   LINTERFAST=   F  fast interpolation
   KINTER  =     0    interpolate to denser k-point grid
   CSHIFT  =0.1000    complex shift for real part using Kramers Kronig
   OMEGAMAX=  -1.0    maximum frequency
   DEG_THRESHOLD= 0.2000000E-02 threshold for treating states as degnerate
   RTIME   =   -0.100 relaxation time in fs
  (WPLASMAI=    0.000 imaginary part of plasma frequency in eV, 0.658/RTIME)
   DFIELD  = 0.0000000 0.0000000 0.0000000 field for delta impulse in time
 
 Orbital magnetization related:
   ORBITALMAG=     F  switch on orbital magnetization
   LCHIMAG   =     F  perturbation theory with respect to B field
   DQ        =  0.001000  dq finite difference perturbation B field
   LLRAUG    =     F  two centre corrections for induced B field



--------------------------------------------------------------------------------------------------------


 Static calculation
 charge density and potential will be updated during run
 non-spin polarized calculation
 Variant of blocked Davidson
 Davidson routine will perform the subspace rotation
 perform sub-space diagonalisation
    after iterative eigenvector-optimisation
 modified Broyden-mixing scheme, WC =      100.0
 initial mixing is a Kerker type mixing with AMIX =  0.4000 and BMIX =      1.0000
 Hartree-type preconditioning will be used
 using additional bands           35
 reciprocal scheme for non local part
 use partial core corrections
 calculate Harris-corrections to forces 
   (improved forces if not selfconsistent)
 use gradient corrections 
 use of overlap-Matrix (Vanderbilt PP)
 Fermi weights with tetrahedron method with Bloechl corrections


--------------------------------------------------------------------------------------------------------


  energy-cutoff  :      250.00
  volume of cell :     2061.20
      direct lattice vectors                 reciprocal lattice vectors
    12.725933180  0.001195540  0.000923447     0.078579700 -0.000006769 -0.000007378
     0.001096479 12.727696831  0.001003781    -0.000007381  0.078568812 -0.000005661
     0.001194993  0.000916952 12.725684621    -0.000005702 -0.000006197  0.078581235

  length of vectors
    12.725933270 12.727696918 12.725684710     0.078579701  0.078568812  0.078581235


 
 old parameters found on file WAVECAR:
  energy-cutoff  :      250.00
  volume of cell :     2061.20
      direct lattice vectors                 reciprocal lattice vectors
    12.725933180  0.001195540  0.000923447     0.078579700 -0.000006769 -0.000007378
     0.001096479 12.727696831  0.001003781    -0.000007381  0.078568812 -0.000005661
     0.001194993  0.000916952 12.725684621    -0.000005702 -0.000006197  0.078581235

  length of vectors

 
 k-points in units of 2pi/SCALE and weight: agbii                                   
   0.00000000  0.00000000  0.00000000       0.016
   0.01964493 -0.00000169 -0.00000184       0.031
   0.00000143  0.00000155 -0.01964531       0.031
   0.03928985 -0.00000338 -0.00000369       0.016
  -0.00000285 -0.00000310  0.03929062       0.016
  -0.00000185  0.01964220 -0.00000142       0.031
   0.01964308  0.01964051 -0.00000326       0.031
   0.00000327 -0.01964065 -0.01964389       0.031
   0.03928800  0.01963882 -0.00000510       0.031
  -0.00000101 -0.01964530  0.03929203       0.031
  -0.01964677  0.01964390  0.00000043       0.031
   0.00000042 -0.01964375  0.01964672       0.031
  -0.00000369  0.03928441 -0.00000283       0.016
   0.01964123  0.03928271 -0.00000467       0.031
  -0.00000226  0.03928595 -0.01964814       0.031
   0.03928616  0.03928102 -0.00000652       0.016
  -0.00000654  0.03928131  0.03928779       0.016
   0.01964350 -0.00000324  0.01964346       0.031
   0.03928842 -0.00000493  0.01964162       0.031
  -0.01964778 -0.00000141  0.03929246       0.031
  -0.01964635  0.00000014  0.01964715       0.031
   0.01964165  0.01963896  0.01964205       0.031
   0.03928658  0.01963727  0.01964020       0.031
  -0.01964593 -0.01964361  0.03929388       0.031
  -0.01964820  0.01964235  0.01964574       0.031
  -0.01964451 -0.01964206  0.01964857       0.031
   0.01963981  0.03928116  0.01964063       0.031
   0.03928473  0.03927947  0.01963879       0.031
  -0.01965147  0.03928300  0.03928963       0.031
  -0.01965004  0.03928455  0.01964432       0.031
   0.01964534 -0.01964544  0.01964488       0.031
   0.03929027 -0.01964714  0.01964303       0.031
  -0.01964962  0.01964080  0.03929105       0.031
   0.03928700 -0.00000648  0.03928693       0.016
   0.03928515  0.01963572  0.03928551       0.031
   0.03928331  0.03927792  0.03928410       0.016
 
 k-points in reciprocal lattice and weights: agbii                                   
   0.00000000  0.00000000  0.00000000       0.016
   0.25000000  0.00000000 -0.00000000       0.031
  -0.00000000  0.00000000 -0.25000000       0.031
   0.50000000  0.00000000 -0.00000000       0.016
   0.00000000 -0.00000000  0.50000000       0.016
  -0.00000000  0.25000000  0.00000000       0.031
   0.25000000  0.25000000  0.00000000       0.031
   0.00000000 -0.25000000 -0.25000000       0.031
   0.50000000  0.25000000 -0.00000000       0.031
   0.00000000 -0.25000000  0.50000000       0.031
  -0.25000000  0.25000000 -0.00000000       0.031
  -0.00000000 -0.25000000  0.25000000       0.031
   0.00000000  0.50000000 -0.00000000       0.016
   0.25000000  0.50000000  0.00000000       0.031
  -0.00000000  0.50000000 -0.25000000       0.031
   0.50000000  0.50000000  0.00000000       0.016
   0.00000000  0.50000000  0.50000000       0.016
   0.25000000 -0.00000000  0.25000000       0.031
   0.50000000 -0.00000000  0.25000000       0.031
  -0.25000000 -0.00000000  0.50000000       0.031
  -0.25000000 -0.00000000  0.25000000       0.031
   0.25000000  0.25000000  0.25000000       0.031
   0.50000000  0.25000000  0.25000000       0.031
  -0.25000000 -0.25000000  0.50000000       0.031
  -0.25000000  0.25000000  0.25000000       0.031
  -0.25000000 -0.25000000  0.25000000       0.031
   0.25000000  0.50000000  0.25000000       0.031
   0.50000000  0.50000000  0.25000000       0.031
  -0.25000000  0.50000000  0.50000000       0.031
  -0.25000000  0.50000000  0.25000000       0.031
   0.25000000 -0.25000000  0.25000000       0.031
   0.50000000 -0.25000000  0.25000000       0.031
  -0.25000000  0.25000000  0.50000000       0.031
   0.50000000 -0.00000000  0.50000000       0.016
   0.50000000  0.25000000  0.50000000       0.031
   0.50000000  0.50000000  0.50000000       0.016
 
 position of ions in fractional coordinates (direct lattice) 
   0.24024747  0.27485891  0.00633146
   0.75304693  0.74941409  0.00224118
   0.99816652  0.24908911  0.24729347
   0.99408582  0.72500447  0.76045149
   0.52497807  0.99994157  0.47518614
   0.51221242  0.77466578  0.24554618
   0.22464640  0.49990529  0.77547023
   0.75516220  0.22491870  0.48866342
   0.00012509  0.00000405  0.00009483
   0.49867668  0.50373328  0.00225280
   0.99806654  0.49608043  0.50160753
   0.25042950  0.00294046  0.24900654
   0.75119853  0.99679978  0.74992728
   0.75047828  0.49986930  0.24997558
   0.49783366  0.25018824  0.74821493
   0.25180081  0.74971857  0.50236746
   0.24644899  0.99311596  0.00357565
   0.23960497  0.99590184  0.49543151
   0.25851676  0.50838928  0.00620234
   0.24461149  0.50374456  0.48944908
   0.75530691  0.00692793  0.00089421
   0.75562425  0.99167843  0.50955365
   0.75006816  0.49323360  0.00538498
   0.75277018  0.50655444  0.49651622
   0.01139166  0.24426029  0.00911902
   0.99349914  0.25836822  0.49034140
   0.99102934  0.75572510  0.98925640
   0.00197795  0.74730487  0.51417026
   0.48591622  0.25254692  0.99814842
   0.50985485  0.22927542  0.50782916
   0.51000588  0.74148724  0.00713173
   0.49225889  0.77051055  0.49028703
   0.99932436  0.99329829  0.24497073
   0.99669284  0.00663563  0.75378450
   0.99491023  0.50659461  0.25026314
   0.99390268  0.49151565  0.74180113
   0.49074266  0.00789562  0.24447736
   0.50481908  0.00401247  0.76063890
   0.50382337  0.49328346  0.24748349
   0.51088350  0.49617068  0.75561698
   0.23813029  0.24130162  0.24542060
   0.25775587  0.27128749  0.75807107
   0.26117466  0.75276352  0.25260968
   0.24181097  0.72866268  0.74254645
   0.76139064  0.25563971  0.25965693
   0.74771429  0.24701921  0.73861735
   0.74106694  0.74415372  0.23907196
   0.75496479  0.75845885  0.76231486
 
 position of ions in cartesian coordinates  (Angst):
   3.05768218  3.49861397  0.08106995
   9.58404931  9.53921769  0.02996824
  12.70316908  3.17175074  3.14815050
  12.65237336  9.22952284  9.67891158
   6.68250005 12.72801647  6.04855752
   6.51952381  9.86054867  3.12599381
   2.86030985  6.36362263  9.86909884
   9.61097426  2.86404798  6.21949966
   0.00159197  0.00005183  0.00120689
   6.34668115  6.41196267  0.02963460
  12.70247152  6.31561451  6.38471880
   3.18724982  0.03795300  3.16901288
   9.56169148 12.68855120  9.54503227
   9.55138330  6.36331131  3.18230521
   6.33656628  3.18560132  9.52225808
   3.20582261  9.54295238  6.39395492
   3.13738654 12.64037681  0.04672704
   3.05088086 12.67627745  6.30592602
   3.29043188  6.47093934  0.07967804
   3.11404667  6.41224927  6.22930619
   9.61199398  0.08908039  0.01208391
   9.61771994 12.62315297  6.48611220
   9.54586448  6.27862938  0.06971526
   9.58085173  6.44862655  6.31971242
   0.14524828  3.10889287  0.11630148
  12.64407288  3.29006978  6.24110683
  12.61378394  9.62073188 12.59063869
   0.02660507  9.51194362  6.54392054
   6.18520700  3.21583688 12.70282417
   6.48923706  2.91922327  6.46317467
   6.49112224  9.43804102  0.09197142
   6.26588443  9.80786274  6.24046609
  12.71871686 12.64381888  3.11934011
  12.68475452  0.08633907  9.59335091
  12.66201565  6.44920156  3.18619709
  12.64976451  6.25773060  9.44133847
   6.24545913  0.10130390  3.11160294
   6.42520719  0.05237052  9.68012102
   6.41245922  6.27919166  3.15035726
   6.50291624  6.31641365  9.61671317
   3.03098805  3.07172363  3.12360726
   3.28138737  3.45386825  9.64748372
   3.32481851  9.58148973  3.21562785
   3.07895655  9.27516769  9.45036664
   9.68999703  3.25485314  3.30527187
   9.51651562  3.14555676  9.40034989
   9.43187002  9.47246817  3.04378561
   9.60937403  9.65503587  9.70243698
 


--------------------------------------------------------------------------------------------------------


 k-point   1 :   0.0000 0.0000 0.0000  plane waves:   18613
 k-point   2 :   0.2500 0.0000-0.0000  plane waves:   18533
 k-point   3 :  -0.0000 0.0000-0.2500  plane waves:   18533
 k-point   4 :   0.5000 0.0000-0.0000  plane waves:   18482
 k-point   5 :   0.0000-0.0000 0.5000  plane waves:   18484
 k-point   6 :  -0.0000 0.2500 0.0000  plane waves:   18533
 k-point   7 :   0.2500 0.2500 0.0000  plane waves:   18509
 k-point   8 :   0.0000-0.2500-0.2500  plane waves:   18509
 k-point   9 :   0.5000 0.2500-0.0000  plane waves:   18506
 k-point  10 :   0.0000-0.2500 0.5000  plane waves:   18506
 k-point  11 :  -0.2500 0.2500-0.0000  plane waves:   18509
 k-point  12 :  -0.0000-0.2500 0.2500  plane waves:   18509
 k-point  13 :   0.0000 0.5000-0.0000  plane waves:   18478
 k-point  14 :   0.2500 0.5000 0.0000  plane waves:   18506
 k-point  15 :  -0.0000 0.5000-0.2500  plane waves:   18506
 k-point  16 :   0.5000 0.5000 0.0000  plane waves:   18528
 k-point  17 :   0.0000 0.5000 0.5000  plane waves:   18528
 k-point  18 :   0.2500-0.0000 0.2500  plane waves:   18509
 k-point  19 :   0.5000-0.0000 0.2500  plane waves:   18506
 k-point  20 :  -0.2500-0.0000 0.5000  plane waves:   18506
 k-point  21 :  -0.2500-0.0000 0.2500  plane waves:   18509
 k-point  22 :   0.2500 0.2500 0.2500  plane waves:   18496
 k-point  23 :   0.5000 0.2500 0.2500  plane waves:   18478
 k-point  24 :  -0.2500-0.2500 0.5000  plane waves:   18478
 k-point  25 :  -0.2500 0.2500 0.2500  plane waves:   18513
 k-point  26 :  -0.2500-0.2500 0.2500  plane waves:   18511
 k-point  27 :   0.2500 0.5000 0.2500  plane waves:   18478
 k-point  28 :   0.5000 0.5000 0.2500  plane waves:   18500
 k-point  29 :  -0.2500 0.5000 0.5000  plane waves:   18500
 k-point  30 :  -0.2500 0.5000 0.2500  plane waves:   18478
 k-point  31 :   0.2500-0.2500 0.2500  plane waves:   18508
 k-point  32 :   0.5000-0.2500 0.2500  plane waves:   18478
 k-point  33 :  -0.2500 0.2500 0.5000  plane waves:   18478
 k-point  34 :   0.5000-0.0000 0.5000  plane waves:   18528
 k-point  35 :   0.5000 0.2500 0.5000  plane waves:   18500
 k-point  36 :   0.5000 0.5000 0.5000  plane waves:   18504

 maximum and minimum number of plane-waves per node :     18613    18478

 maximum number of plane-waves:     18613
 maximum index in each direction: 
   IXMAX=   16   IYMAX=   16   IZMAX=   16
   IXMIN=  -16   IYMIN=  -16   IZMIN=  -16


 serial   3D FFT for wavefunctions
 parallel 3D FFT for charge:
    minimum data exchange during FFTs selected (reduces bandwidth)


 total amount of memory used by VASP MPI-rank0  2782079. kBytes
=======================================================================

   base      :      30000. kBytes
   nonl-proj :     303764. kBytes
   fftplans  :      34720. kBytes
   grid      :      70000. kBytes
   one-center:        746. kBytes
   wavefun   :    2342849. kBytes
 
     INWAV:  cpu time    4.5021: real time    4.9911
 Broyden mixing: mesh for mixing (old mesh)
   NGX = 33   NGY = 33   NGZ = 33
  (NGX  =100   NGY  =100   NGZ  =100)
  gives a total of  35937 points

 initial charge density was supplied:
 number of electron     352.0000443 magnetization 
 keeping initial charge density in first step


--------------------------------------------------------------------------------------------------------


 Maximum index for augmentation-charges         5609 (set IRDMAX)


--------------------------------------------------------------------------------------------------------


 First call to EWALD:  gamma=   0.139
 Maximum number of real-space cells 3x 3x 3
 Maximum number of reciprocal cells 3x 3x 3

    FEWALD:  cpu time    0.0026: real time    0.0026


--------------------------------------- Iteration      1(   1)  ---------------------------------------


    POTLOK:  cpu time    0.5567: real time    0.5983
    SETDIJ:  cpu time    0.0267: real time    0.0268
     EDDAV:  cpu time   59.7280: real time   59.7268
 BZINTS: Fermi energy:    2.052834;  352.000000 electrons
         Band energy:-0.758627E+03;  BLOECHL correction:   -0.000000
       DOS:  cpu time    0.0655: real time    0.0655
    CHARGE:  cpu time    1.2450: real time    1.2450
    MIXING:  cpu time    0.0242: real time    0.0242
    --------------------------------------------
      LOOP:  cpu time   61.6461: real time   61.6865

 eigenvalue-minimisations  : 10576
 total energy-change (2. order) :-0.1199642E+03  (-0.2880893E-06)
 number of electron     352.0000443 magnetization 
 augmentation part      -23.1223618 magnetization 

 Broyden mixing:
  rms(total) = 0.69055E-03    rms(broyden)= 0.69051E-03
  rms(prec ) = 0.79668E-03
  weight for this iteration     100.00

 Free energy of the ion-electron system (eV)
  ---------------------------------------------------
  alpha Z        PSCENC =       225.93529867
  Ewald energy   TEWEN  =    -13871.20043896
  -Hartree energ DENC   =     -6077.92086046
  -exchange      EXHF   =         0.00000000
  -V(xc)+E(xc)   XCENC  =     -1392.36962001
  PAW double counting   =     22639.14807755   -20496.65341324
  entropy T*S    EENTRO =         0.00000000
  eigenvalues    EBANDS =      -758.62701391
  atomic energy  EATOM  =     19611.72375700
  Solvation  Ediel_sol  =         0.00000000
  ---------------------------------------------------
  free energy    TOTEN  =      -119.96421335 eV

  energy without entropy =     -119.96421335  energy(sigma->0) =     -119.96421335


--------------------------------------------------------------------------------------------------------




--------------------------------------- Iteration      1(   2)  ---------------------------------------


    POTLOK:  cpu time    0.5827: real time    0.5828
    SETDIJ:  cpu time    0.0383: real time    0.0383
     EDDAV:  cpu time   50.5964: real time   50.5953
 BZINTS: Fermi energy:    2.052963;  352.000000 electrons
         Band energy:-0.758623E+03;  BLOECHL correction:    0.000000
       DOS:  cpu time    0.0571: real time    0.0571
    --------------------------------------------
      LOOP:  cpu time   51.2745: real time   51.2734

 eigenvalue-minimisations  :  8208
 total energy-change (2. order) : 0.3831155E-07  (-0.1197403E-06)
 number of electron     352.0000443 magnetization 
 augmentation part      -23.1223618 magnetization 

 Free energy of the ion-electron system (eV)
  ---------------------------------------------------
  alpha Z        PSCENC =       225.93529867
  Ewald energy   TEWEN  =    -13871.20043896
  -Hartree energ DENC   =     -6077.92487243
  -exchange      EXHF   =         0.00000000
  -V(xc)+E(xc)   XCENC  =     -1392.36914217
  PAW double counting   =     22638.71256336   -20496.21874956
  entropy T*S    EENTRO =         0.00000000
  eigenvalues    EBANDS =      -758.62262922
  atomic energy  EATOM  =     19611.72375700
  Solvation  Ediel_sol  =         0.00000000
  ---------------------------------------------------
  free energy    TOTEN  =      -119.96421332 eV

  energy without entropy =     -119.96421332  energy(sigma->0) =     -119.96421332


--------------------------------------------------------------------------------------------------------




 average (electrostatic) potential at core
  the test charge radii are     1.1249  1.4024  1.1875
  (the norm of the test charge is              1.0000)
       1 -75.0615       2 -75.0028       3 -75.0026       4 -75.0613       5 -75.1918
       6 -75.0695       7 -75.1882       8 -75.0689       9 -65.5051      10 -65.5336
      11 -65.5324      12 -65.5295      13 -65.5294      14 -65.5095      15 -65.4759
      16 -65.4750      17 -93.3347      18 -93.3230      19 -93.2294      20 -93.3196
      21 -93.3160      22 -93.2276      23 -93.3222      24 -93.3393      25 -92.9964
      26 -93.0809      27 -92.9974      28 -93.1896      29 -93.1935      30 -93.0972
      31 -93.0815      32 -93.0986      33 -93.3219      34 -93.3351      35 -93.3183
      36 -93.2288      37 -93.2299      38 -93.3239      39 -93.3391      40 -93.3178
      41 -93.0780      42 -93.0796      43 -93.1743      44 -93.0795      45 -93.0144
      46 -93.1774      47 -93.0139      48 -93.0796
 
 
 
 E-fermi :   2.0530     XC(G=0):  -7.8002     alpha+bet : -7.7655


 k-point     1 :       0.0000    0.0000    0.0000
  band No.  band energies     occupation 
      1     -10.8459      2.00000
      2     -10.7170      2.00000
      3     -10.6711      2.00000
      4     -10.5357      2.00000
      5     -10.4826      2.00000
      6     -10.2577      2.00000
      7     -10.2223      2.00000
      8     -10.0422      2.00000
      9      -9.8909      2.00000
     10      -9.8828      2.00000
     11      -9.8705      2.00000
     12      -9.8500      2.00000
     13      -9.8444      2.00000
     14      -9.8088      2.00000
     15      -9.8055      2.00000
     16      -9.7406      2.00000
     17      -9.7305      2.00000
     18      -9.7137      2.00000
     19      -9.7056      2.00000
     20      -9.7039      2.00000
     21      -9.6839      2.00000
     22      -9.6600      2.00000
     23      -9.6539      2.00000
     24      -9.6265      2.00000
     25      -9.6138      2.00000
     26      -9.6065      2.00000
     27      -9.5896      2.00000
     28      -9.5634      2.00000
     29      -9.5541      2.00000
     30      -9.5515      2.00000
     31      -9.5417      2.00000
     32      -9.5108      2.00000
     33      -8.2243      2.00000
     34      -8.1245      2.00000
     35      -8.1135      2.00000
     36      -7.8820      2.00000
     37      -7.8575      2.00000
     38      -7.6460      2.00000
     39      -7.6326      2.00000
     40      -7.6295      2.00000
     41      -1.8226      2.00000
     42      -1.7636      2.00000
     43      -1.7200      2.00000
     44      -1.7042      2.00000
     45      -1.6573      2.00000
     46      -1.5883      2.00000
     47      -1.5328      2.00000
     48      -1.4757      2.00000
     49      -1.4726      2.00000
     50      -1.4402      2.00000
     51      -1.4350      2.00000
     52      -1.3936      2.00000
     53      -1.3574      2.00000
     54      -1.3299      2.00000
     55      -1.3225      2.00000
     56      -1.2775      2.00000
     57      -1.2341      2.00000
     58      -1.2256      2.00000
     59      -1.1576      2.00000
     60      -1.1132      2.00000
     61      -1.0994      2.00000
     62      -1.0662      2.00000
     63      -1.0209      2.00000
     64      -1.0188      2.00000
     65      -1.0166      2.00000
     66      -0.9986      2.00000
     67      -0.9863      2.00000
     68      -0.9847      2.00000
     69      -0.9614      2.00000
     70      -0.9217      2.00000
     71      -0.9179      2.00000
     72      -0.9174      2.00000
     73      -0.8865      2.00000
     74      -0.8516      2.00000
     75      -0.8460      2.00000
     76      -0.8205      2.00000
     77      -0.8136      2.00000
     78      -0.8068      2.00000
     79      -0.7809      2.00000
     80      -0.7334      2.00000
     81      -0.7026      2.00000
     82      -0.6993      2.00000
     83      -0.6629      2.00000
     84      -0.6417      2.00000
     85      -0.6329      2.00000
     86      -0.6197      2.00000
     87      -0.5788      2.00000
     88      -0.5528      2.00000
     89      -0.5434      2.00000
     90      -0.5089      2.00000
     91      -0.4908      2.00000
     92      -0.4721      2.00000
     93      -0.4660      2.00000
     94      -0.4176      2.00000
     95      -0.4013      2.00000
     96      -0.3759      2.00000
     97      -0.3570      2.00000
     98      -0.3528      2.00000
     99      -0.3309      2.00000
    100      -0.3226      2.00000
    101      -0.2874      2.00000
    102      -0.2652      2.00000
    103      -0.2589      2.00000
    104      -0.2269      2.00000
    105      -0.2122      2.00000
    106      -0.2030      2.00000
    107      -0.1750      2.00000
    108      -0.1572      2.00000
    109      -0.1311      2.00000
    110      -0.1210      2.00000
    111      -0.0639      2.00000
    112      -0.0502      2.00000
    113       0.0757      2.00000
    114       0.1249      2.00000
    115       0.1631      2.00000
    116       0.1743      2.00000
    117       0.1830      2.00000
    118       0.2112      2.00000
    119       0.2356      2.00000
    120       0.2409      2.00000
    121       0.2530      2.00000
    122       0.2878      2.00000
    123       0.3515      2.00000
    124       0.3956      2.00000
    125       0.3970      2.00000
    126       0.4150      2.00000
    127       0.4787      2.00000
    128       0.5168      2.00000
    129       0.5272      2.00000
    130       0.5273      2.00000
    131       0.5418      2.00000
    132       0.5491      2.00000
    133       0.5814      2.00000
    134       0.6377      2.00000
    135       0.6899      2.00000
    136       0.7068      2.00000
    137       0.7103      2.00000
    138       0.7159      2.00000
    139       0.7249      2.00000
    140       0.7777      2.00000
    141       0.7859      2.00000
    142       0.7895      2.00000
    143       0.8196      2.00000
    144       0.8375      2.00000
    145       0.8459      2.00000
    146       0.8900      2.00000
    147       0.9372      2.00000
    148       0.9603      2.00000
    149       0.9876      2.00000
    150       1.0282      2.00000
    151       1.0630      2.00000
    152       1.0913      2.00000
    153       1.1014      2.00000
    154       1.1466      2.00000
    155       1.1616      2.00000
    156       1.1725      2.00000
    157       1.1949      2.00000
    158       1.2006      2.00000
    159       1.2372      2.00000
    160       1.3041      2.00000
    161       1.3571      2.00000
    162       1.3998      2.00000
    163       1.4544      2.00000
    164       1.4824      2.00000
    165       1.5300      2.00000
    166       1.5429      2.00000
    167       1.5688      2.00000
    168       1.5959      2.00000
    169       1.7551      2.00000
    170       1.7612      2.00000
    171       1.8714      2.00000
    172       1.8868      2.00000
    173       1.9963      2.00000
    174       2.0069      2.00000
    175       2.0230      2.00000
    176       2.0529      2.00000
    177       3.8373      0.00000
    178       4.0016      0.00000
    179       4.0039      0.00000
    180       4.1197      0.00000
    181       4.1585      0.00000
    182       4.3396      0.00000
    183       4.3403      0.00000
    184       4.3923      0.00000
    185       4.4180      0.00000
    186       4.4353      0.00000
    187       4.5140      0.00000
    188       4.5286      0.00000
    189       4.5553      0.00000
    190       4.5591      0.00000
    191       4.5982      0.00000
    192       4.6043      0.00000
    193       4.6428      0.00000
    194       4.7001      0.00000
    195       4.7295      0.00000
    196       4.7341      0.00000
    197       4.7954      0.00000
    198       4.8257      0.00000
    199       4.8310      0.00000
    200       4.9511      0.00000
    201       5.0684      0.00000
    202       5.2647      0.00000
    203       5.5796      0.00000
    204       5.7237      0.00000
    205       5.9078      0.00000
    206       5.9281      0.00000
    207       5.9446      0.00000
    208       5.9806      0.00000
    209       7.1544      0.00000
    210       7.2614      0.00000
    211       7.2692      0.00000

 k-point     2 :       0.2500    0.0000   -0.0000
  band No.  band energies     occupation 
      1     -10.8311      2.00000
      2     -10.7227      2.00000
      3     -10.6914      2.00000
      4     -10.5330      2.00000
      5     -10.4793      2.00000
      6     -10.2564      2.00000
      7     -10.2112      2.00000
      8     -10.0530      2.00000
      9      -9.8960      2.00000
     10      -9.8917      2.00000
     11      -9.8747      2.00000
     12      -9.8505      2.00000
     13      -9.8468      2.00000
     14      -9.7985      2.00000
     15      -9.7870      2.00000
     16      -9.7439      2.00000
     17      -9.7299      2.00000
     18      -9.7167      2.00000
     19      -9.6972      2.00000
     20      -9.6945      2.00000
     21      -9.6909      2.00000
     22      -9.6608      2.00000
     23      -9.6480      2.00000
     24      -9.6325      2.00000
     25      -9.6107      2.00000
     26      -9.6092      2.00000
     27      -9.5845      2.00000
     28      -9.5685      2.00000
     29      -9.5571      2.00000
     30      -9.5519      2.00000
     31      -9.5402      2.00000
     32      -9.5165      2.00000
     33      -8.2296      2.00000
     34      -8.1217      2.00000
     35      -8.1129      2.00000
     36      -7.8806      2.00000
     37      -7.8582      2.00000
     38      -7.6781      2.00000
     39      -7.6297      2.00000
     40      -7.6005      2.00000
     41      -1.8009      2.00000
     42      -1.7488      2.00000
     43      -1.7191      2.00000
     44      -1.6901      2.00000
     45      -1.6507      2.00000
     46      -1.6098      2.00000
     47      -1.5623      2.00000
     48      -1.5460      2.00000
     49      -1.4945      2.00000
     50      -1.4501      2.00000
     51      -1.3949      2.00000
     52      -1.3836      2.00000
     53      -1.3506      2.00000
     54      -1.3252      2.00000
     55      -1.3021      2.00000
     56      -1.2726      2.00000
     57      -1.2248      2.00000
     58      -1.2008      2.00000
     59      -1.1789      2.00000
     60      -1.1290      2.00000
     61      -1.1166      2.00000
     62      -1.0833      2.00000
     63      -1.0492      2.00000
     64      -1.0347      2.00000
     65      -1.0180      2.00000
     66      -0.9992      2.00000
     67      -0.9779      2.00000
     68      -0.9647      2.00000
     69      -0.9445      2.00000
     70      -0.9343      2.00000
     71      -0.9154      2.00000
     72      -0.9017      2.00000
     73      -0.8854      2.00000
     74      -0.8711      2.00000
     75      -0.8386      2.00000
     76      -0.8184      2.00000
     77      -0.8122      2.00000
     78      -0.8084      2.00000
     79      -0.7636      2.00000
     80      -0.7539      2.00000
     81      -0.7056      2.00000
     82      -0.6804      2.00000
     83      -0.6587      2.00000
     84      -0.6500      2.00000
     85      -0.6339      2.00000
     86      -0.5929      2.00000
     87      -0.5828      2.00000
     88      -0.5551      2.00000
     89      -0.5116      2.00000
     90      -0.4996      2.00000
     91      -0.4815      2.00000
     92      -0.4727      2.00000
     93      -0.4426      2.00000
     94      -0.4194      2.00000
     95      -0.4007      2.00000
     96      -0.3892      2.00000
     97      -0.3752      2.00000
     98      -0.3682      2.00000
     99      -0.3409      2.00000
    100      -0.3151      2.00000
    101      -0.3040      2.00000
    102      -0.2824      2.00000
    103      -0.2270      2.00000
    104      -0.2244      2.00000
    105      -0.2093      2.00000
    106      -0.1792      2.00000
    107      -0.1610      2.00000
    108      -0.1590      2.00000
    109      -0.1468      2.00000
    110      -0.1358      2.00000
    111      -0.1019      2.00000
    112      -0.0513      2.00000
    113       0.0815      2.00000
    114       0.1092      2.00000
    115       0.1306      2.00000
    116       0.1468      2.00000
    117       0.1767      2.00000
    118       0.2272      2.00000
    119       0.2478      2.00000
    120       0.2632      2.00000
    121       0.2852      2.00000
    122       0.3350      2.00000
    123       0.3499      2.00000
    124       0.3550      2.00000
    125       0.4156      2.00000
    126       0.4467      2.00000
    127       0.4662      2.00000
    128       0.5113      2.00000
    129       0.5255      2.00000
    130       0.5536      2.00000
    131       0.5659      2.00000
    132       0.5905      2.00000
    133       0.6017      2.00000
    134       0.6258      2.00000
    135       0.6505      2.00000
    136       0.6858      2.00000
    137       0.6982      2.00000
    138       0.7181      2.00000
    139       0.7545      2.00000
    140       0.7594      2.00000
    141       0.7749      2.00000
    142       0.8127      2.00000
    143       0.8176      2.00000
    144       0.8311      2.00000
    145       0.8639      2.00000
    146       0.8979      2.00000
    147       0.9707      2.00000
    148       0.9865      2.00000
    149       0.9900      2.00000
    150       1.0111      2.00000
    151       1.0196      2.00000
    152       1.0793      2.00000
    153       1.1237      2.00000
    154       1.1474      2.00000
    155       1.1526      2.00000
    156       1.1545      2.00000
    157       1.1859      2.00000
    158       1.2090      2.00000
    159       1.2413      2.00000
    160       1.2932      2.00000
    161       1.3541      2.00000
    162       1.4081      2.00000
    163       1.4654      2.00000
    164       1.4776      2.00000
    165       1.5219      2.00000
    166       1.5470      2.00000
    167       1.5953      2.00000
    168       1.6182      2.00000
    169       1.7514      2.00000
    170       1.7645      2.00000
    171       1.8485      2.00000
    172       1.8729      2.00000
    173       1.9629      2.00000
    174       1.9712      2.00000
    175       2.0032      2.00000
    176       2.0154      2.00000
    177       3.8962      0.00000
    178       3.9876      0.00000
    179       4.0255      0.00000
    180       4.1415      0.00000
    181       4.1619      0.00000
    182       4.2980      0.00000
    183       4.3193      0.00000
    184       4.3907      0.00000
    185       4.4215      0.00000
    186       4.4463      0.00000
    187       4.4664      0.00000
    188       4.5051      0.00000
    189       4.5738      0.00000
    190       4.5819      0.00000
    191       4.5936      0.00000
    192       4.6224      0.00000
    193       4.6483      0.00000
    194       4.6575      0.00000
    195       4.6958      0.00000
    196       4.7549      0.00000
    197       4.7824      0.00000
    198       4.8226      0.00000
    199       4.8557      0.00000
    200       4.9300      0.00000
    201       5.1953      0.00000
    202       5.3492      0.00000
    203       5.5904      0.00000
    204       5.7353      0.00000
    205       5.8056      0.00000
    206       5.8267      0.00000
    207       5.9479      0.00000
    208       5.9611      0.00000
    209       7.2664      0.00000
    210       7.3010      0.00000
    211       7.3692      0.00000

 k-point     3 :      -0.0000    0.0000   -0.2500
  band No.  band energies     occupation 
      1     -10.8311      2.00000
      2     -10.7225      2.00000
      3     -10.6916      2.00000
      4     -10.5329      2.00000
      5     -10.4793      2.00000
      6     -10.2562      2.00000
      7     -10.2113      2.00000
      8     -10.0530      2.00000
      9      -9.8957      2.00000
     10      -9.8910      2.00000
     11      -9.8757      2.00000
     12      -9.8505      2.00000
     13      -9.8466      2.00000
     14      -9.7989      2.00000
     15      -9.7869      2.00000
     16      -9.7439      2.00000
     17      -9.7298      2.00000
     18      -9.7167      2.00000
     19      -9.6976      2.00000
     20      -9.6945      2.00000
     21      -9.6906      2.00000
     22      -9.6605      2.00000
     23      -9.6482      2.00000
     24      -9.6327      2.00000
     25      -9.6109      2.00000
     26      -9.6090      2.00000
     27      -9.5846      2.00000
     28      -9.5684      2.00000
     29      -9.5570      2.00000
     30      -9.5519      2.00000
     31      -9.5402      2.00000
     32      -9.5165      2.00000
     33      -8.2296      2.00000
     34      -8.1217      2.00000
     35      -8.1128      2.00000
     36      -7.8808      2.00000
     37      -7.8581      2.00000
     38      -7.6778      2.00000
     39      -7.6301      2.00000
     40      -7.6004      2.00000
     41      -1.8009      2.00000
     42      -1.7487      2.00000
     43      -1.7190      2.00000
     44      -1.6900      2.00000
     45      -1.6507      2.00000
     46      -1.6099      2.00000
     47      -1.5619      2.00000
     48      -1.5465      2.00000
     49      -1.4942      2.00000
     50      -1.4503      2.00000
     51      -1.3953      2.00000
     52      -1.3843      2.00000
     53      -1.3503      2.00000
     54      -1.3251      2.00000
     55      -1.3015      2.00000
     56      -1.2725      2.00000
     57      -1.2248      2.00000
     58      -1.2010      2.00000
     59      -1.1788      2.00000
     60      -1.1295      2.00000
     61      -1.1166      2.00000
     62      -1.0836      2.00000
     63      -1.0499      2.00000
     64      -1.0344      2.00000
     65      -1.0175      2.00000
     66      -0.9991      2.00000
     67      -0.9779      2.00000
     68      -0.9647      2.00000
     69      -0.9453      2.00000
     70      -0.9341      2.00000
     71      -0.9142      2.00000
     72      -0.9028      2.00000
     73      -0.8851      2.00000
     74      -0.8714      2.00000
     75      -0.8382      2.00000
     76      -0.8187      2.00000
     77      -0.8124      2.00000
     78      -0.8079      2.00000
     79      -0.7632      2.00000
     80      -0.7538      2.00000
     81      -0.7053      2.00000
     82      -0.6813      2.00000
     83      -0.6602      2.00000
     84      -0.6495      2.00000
     85      -0.6328      2.00000
     86      -0.5929      2.00000
     87      -0.5824      2.00000
     88      -0.5551      2.00000
     89      -0.5119      2.00000
     90      -0.4989      2.00000
     91      -0.4807      2.00000
     92      -0.4736      2.00000
     93      -0.4430      2.00000
     94      -0.4191      2.00000
     95      -0.3998      2.00000
     96      -0.3895      2.00000
     97      -0.3746      2.00000
     98      -0.3681      2.00000
     99      -0.3419      2.00000
    100      -0.3151      2.00000
    101      -0.3041      2.00000
    102      -0.2825      2.00000
    103      -0.2266      2.00000
    104      -0.2243      2.00000
    105      -0.2092      2.00000
    106      -0.1795      2.00000
    107      -0.1611      2.00000
    108      -0.1593      2.00000
    109      -0.1469      2.00000
    110      -0.1353      2.00000
    111      -0.1018      2.00000
    112      -0.0522      2.00000
    113       0.0809      2.00000
    114       0.1093      2.00000
    115       0.1314      2.00000
    116       0.1469      2.00000
    117       0.1768      2.00000
    118       0.2272      2.00000
    119       0.2476      2.00000
    120       0.2635      2.00000
    121       0.2851      2.00000
    122       0.3352      2.00000
    123       0.3506      2.00000
    124       0.3548      2.00000
    125       0.4164      2.00000
    126       0.4461      2.00000
    127       0.4651      2.00000
    128       0.5111      2.00000
    129       0.5254      2.00000
    130       0.5539      2.00000
    131       0.5653      2.00000
    132       0.5914      2.00000
    133       0.6012      2.00000
    134       0.6261      2.00000
    135       0.6495      2.00000
    136       0.6859      2.00000
    137       0.6987      2.00000
    138       0.7183      2.00000
    139       0.7541      2.00000
    140       0.7595      2.00000
    141       0.7753      2.00000
    142       0.8129      2.00000
    143       0.8179      2.00000
    144       0.8313      2.00000
    145       0.8639      2.00000
    146       0.8972      2.00000
    147       0.9706      2.00000
    148       0.9867      2.00000
    149       0.9911      2.00000
    150       1.0107      2.00000
    151       1.0198      2.00000
    152       1.0784      2.00000
    153       1.1237      2.00000
    154       1.1482      2.00000
    155       1.1523      2.00000
    156       1.1544      2.00000
    157       1.1868      2.00000
    158       1.2084      2.00000
    159       1.2415      2.00000
    160       1.2931      2.00000
    161       1.3536      2.00000
    162       1.4076      2.00000
    163       1.4648      2.00000
    164       1.4780      2.00000
    165       1.5222      2.00000
    166       1.5471      2.00000
    167       1.5956      2.00000
[...]
    143       0.7960      2.00000
    144       0.8821      2.00000
    145       0.9098      2.00000
    146       0.9512      2.00000
    147       0.9823      2.00000
    148       1.0057      2.00000
    149       1.0131      2.00000
    150       1.0482      2.00000
    151       1.0617      2.00000
    152       1.0861      2.00000
    153       1.1010      2.00000
    154       1.1081      2.00000
    155       1.1534      2.00000
    156       1.1607      2.00000
    157       1.1964      2.00000
    158       1.2273      2.00000
    159       1.2356      2.00000
    160       1.2542      2.00000
    161       1.4789      2.00000
    162       1.4810      2.00000
    163       1.5357      2.00000
    164       1.5538      2.00000
    165       1.5823      2.00000
    166       1.5881      2.00000
    167       1.6276      2.00000
    168       1.6399      2.00000
    169       1.7366      2.00000
    170       1.7726      2.00000
    171       1.8310      2.00000
    172       1.8403      2.00000
    173       1.8539      2.00000
    174       1.8701      2.00000
    175       2.0072      2.00000
    176       2.0241      2.00000
    177       3.7177      0.00000
    178       3.7815      0.00000
    179       3.9640      0.00000
    180       4.0206      0.00000
    181       4.0814      0.00000
    182       4.1089      0.00000
    183       4.2384      0.00000
    184       4.2866      0.00000
    185       4.3279      0.00000
    186       4.3843      0.00000
    187       4.4417      0.00000
    188       4.4564      0.00000
    189       4.6067      0.00000
    190       4.6236      0.00000
    191       4.6511      0.00000
    192       4.7242      0.00000
    193       4.7849      0.00000
    194       4.7948      0.00000
    195       4.7985      0.00000
    196       4.8217      0.00000
    197       4.8844      0.00000
    198       4.8892      0.00000
    199       4.9511      0.00000
    200       4.9789      0.00000
    201       5.5396      0.00000
    202       5.5517      0.00000
    203       5.5905      0.00000
    204       5.5970      0.00000
    205       5.6112      0.00000
    206       5.6806      0.00000
    207       5.7609      0.00000
    208       5.8003      0.00000
    209       7.3551      0.00000
    210       7.4010      0.00000
    211       7.5146      0.00000

 k-point    36 :       0.5000    0.5000    0.5000
  band No.  band energies     occupation 
      1     -10.7715      2.00000
      2     -10.7697      2.00000
      3     -10.6431      2.00000
      4     -10.6413      2.00000
      5     -10.3855      2.00000
      6     -10.3843      2.00000
      7     -10.1188      2.00000
      8     -10.1140      2.00000
      9      -9.9080      2.00000
     10      -9.9076      2.00000
     11      -9.8193      2.00000
     12      -9.8171      2.00000
     13      -9.7924      2.00000
     14      -9.7922      2.00000
     15      -9.7507      2.00000
     16      -9.7496      2.00000
     17      -9.7290      2.00000
     18      -9.7271      2.00000
     19      -9.7045      2.00000
     20      -9.7005      2.00000
     21      -9.6963      2.00000
     22      -9.6935      2.00000
     23      -9.6395      2.00000
     24      -9.6330      2.00000
     25      -9.6164      2.00000
     26      -9.6140      2.00000
     27      -9.5881      2.00000
     28      -9.5827      2.00000
     29      -9.5553      2.00000
     30      -9.5497      2.00000
     31      -9.5390      2.00000
     32      -9.5378      2.00000
     33      -8.2011      2.00000
     34      -8.1998      2.00000
     35      -8.0075      2.00000
     36      -8.0034      2.00000
     37      -7.7657      2.00000
     38      -7.7641      2.00000
     39      -7.5883      2.00000
     40      -7.5853      2.00000
     41      -1.7836      2.00000
     42      -1.7819      2.00000
     43      -1.6771      2.00000
     44      -1.6766      2.00000
     45      -1.6344      2.00000
     46      -1.6337      2.00000
     47      -1.5406      2.00000
     48      -1.5390      2.00000
     49      -1.4927      2.00000
     50      -1.4919      2.00000
     51      -1.4599      2.00000
     52      -1.4572      2.00000
     53      -1.3798      2.00000
     54      -1.3785      2.00000
     55      -1.2893      2.00000
     56      -1.2882      2.00000
     57      -1.2724      2.00000
     58      -1.2697      2.00000
     59      -1.1446      2.00000
     60      -1.1356      2.00000
     61      -1.0505      2.00000
     62      -1.0434      2.00000
     63      -1.0100      2.00000
     64      -1.0055      2.00000
     65      -0.9977      2.00000
     66      -0.9892      2.00000
     67      -0.9704      2.00000
     68      -0.9612      2.00000
     69      -0.9210      2.00000
     70      -0.9103      2.00000
     71      -0.8879      2.00000
     72      -0.8805      2.00000
     73      -0.8696      2.00000
     74      -0.8687      2.00000
     75      -0.8438      2.00000
     76      -0.8430      2.00000
     77      -0.8311      2.00000
     78      -0.8249      2.00000
     79      -0.7465      2.00000
     80      -0.7460      2.00000
     81      -0.6980      2.00000
     82      -0.6939      2.00000
     83      -0.6255      2.00000
     84      -0.6229      2.00000
     85      -0.5921      2.00000
     86      -0.5875      2.00000
     87      -0.5522      2.00000
     88      -0.5511      2.00000
     89      -0.5243      2.00000
     90      -0.5175      2.00000
     91      -0.4817      2.00000
     92      -0.4772      2.00000
     93      -0.4080      2.00000
     94      -0.4067      2.00000
     95      -0.3852      2.00000
     96      -0.3797      2.00000
     97      -0.3616      2.00000
     98      -0.3584      2.00000
     99      -0.3157      2.00000
    100      -0.3113      2.00000
    101      -0.3098      2.00000
    102      -0.3040      2.00000
    103      -0.2598      2.00000
    104      -0.2540      2.00000
    105      -0.2103      2.00000
    106      -0.2071      2.00000
    107      -0.1891      2.00000
    108      -0.1849      2.00000
    109      -0.1474      2.00000
    110      -0.1464      2.00000
    111      -0.0871      2.00000
    112      -0.0837      2.00000
    113       0.0342      2.00000
    114       0.0366      2.00000
    115       0.1458      2.00000
    116       0.1462      2.00000
    117       0.2304      2.00000
    118       0.2361      2.00000
    119       0.2836      2.00000
    120       0.2853      2.00000
    121       0.3647      2.00000
    122       0.3679      2.00000
    123       0.3709      2.00000
    124       0.3728      2.00000
    125       0.4207      2.00000
    126       0.4236      2.00000
    127       0.4546      2.00000
    128       0.4571      2.00000
    129       0.5100      2.00000
    130       0.5158      2.00000
    131       0.5522      2.00000
    132       0.5545      2.00000
    133       0.5710      2.00000
    134       0.5784      2.00000
    135       0.6078      2.00000
    136       0.6083      2.00000
    137       0.6641      2.00000
    138       0.6715      2.00000
    139       0.6954      2.00000
    140       0.7062      2.00000
    141       0.7382      2.00000
    142       0.7427      2.00000
    143       0.8786      2.00000
    144       0.8817      2.00000
    145       0.9055      2.00000
    146       0.9136      2.00000
    147       1.0304      2.00000
    148       1.0353      2.00000
    149       1.0501      2.00000
    150       1.0564      2.00000
    151       1.0738      2.00000
    152       1.0749      2.00000
    153       1.0891      2.00000
    154       1.0905      2.00000
    155       1.1738      2.00000
    156       1.1742      2.00000
    157       1.2013      2.00000
    158       1.2025      2.00000
    159       1.2635      2.00000
    160       1.2678      2.00000
    161       1.4737      2.00000
    162       1.4740      2.00000
    163       1.5710      2.00000
    164       1.5759      2.00000
    165       1.5816      2.00000
    166       1.5845      2.00000
    167       1.6906      2.00000
    168       1.6942      2.00000
    169       1.7706      2.00000
    170       1.7755      2.00000
    171       1.8292      2.00000
    172       1.8321      2.00000
    173       1.8629      2.00000
    174       1.8636      2.00000
    175       2.0166      2.00000
    176       2.0170      2.00000
    177       3.7059      0.00000
    178       3.7098      0.00000
    179       3.9116      0.00000
    180       3.9124      0.00000
    181       4.0423      0.00000
    182       4.0441      0.00000
    183       4.2289      0.00000
    184       4.2292      0.00000
    185       4.3137      0.00000
    186       4.3194      0.00000
    187       4.4215      0.00000
    188       4.4233      0.00000
    189       4.6129      0.00000
    190       4.6177      0.00000
    191       4.7021      0.00000
    192       4.7052      0.00000
    193       4.8174      0.00000
    194       4.8237      0.00000
    195       4.8466      0.00000
    196       4.8482      0.00000
    197       4.9476      0.00000
    198       4.9511      0.00000
    199       5.0284      0.00000
    200       5.0307      0.00000
    201       5.5321      0.00000
    202       5.5341      0.00000
    203       5.5634      0.00000
    204       5.5641      0.00000
    205       5.6020      0.00000
    206       5.6202      0.00000
    207       5.7961      0.00000
    208       5.7978      0.00000
    209       7.2427      0.00000
    210       7.2462      0.00000
    211       7.4983      0.00000


--------------------------------------------------------------------------------------------------------


 soft charge-density along one line, spin component           1
         0         1         2         3         4         5         6         7         8         9
 total charge-density along one line
 
 pseudopotential strength for first ion, spin component:           1
 -6.459   0.000  -0.001  -0.001  -0.000  -6.594   0.000  -0.001
  0.000  -6.456  -0.001   0.001   0.000   0.000  -6.591  -0.001
 -0.001  -0.001  -6.445  -0.000  -0.004  -0.001  -0.001  -6.580
 -0.001   0.001  -0.000  -6.451   0.000  -0.001   0.001  -0.000
 -0.000   0.000  -0.004   0.000  -6.452  -0.000   0.000  -0.004
 -6.594   0.000  -0.001  -0.001  -0.000  -6.698   0.000  -0.001
  0.000  -6.591  -0.001   0.001   0.000   0.000  -6.695  -0.001
 -0.001  -0.001  -6.580  -0.000  -0.004  -0.001  -0.001  -6.684
 -0.001   0.001  -0.000  -6.586   0.000  -0.000   0.001  -0.000
 -0.000   0.000  -0.004   0.000  -6.587  -0.000   0.000  -0.004
  0.001  -0.000  -0.001  -0.000   0.001   0.001  -0.000  -0.001
  0.001  -0.000  -0.002  -0.001   0.001   0.001  -0.000  -0.002
  0.006  -0.002   0.004  -0.000   0.007   0.006  -0.002   0.004
 -0.000  -0.006  -0.002   0.006   0.000  -0.000  -0.006  -0.002
 -0.006  -0.000  -0.004  -0.002   0.006  -0.006  -0.000  -0.003
  0.007  -0.003   0.005   0.000   0.009   0.007  -0.003   0.005
  0.000  -0.008  -0.003   0.007   0.000   0.000  -0.007  -0.003
 -0.008   0.000  -0.004  -0.002   0.007  -0.007   0.000  -0.004
 total augmentation occupancy for first ion, spin component:           1
  2.303   0.001  -0.125  -0.001   0.008  -0.329   0.002   0.125   0.005  -0.008  -0.141   0.023  -0.025  -0.000   0.073   0.004
  0.001   2.299  -0.162   0.008   0.000   0.002  -0.297   0.147  -0.014  -0.006   0.070  -0.014  -0.008   0.044   0.000  -0.001
 -0.125  -0.162   4.087  -0.042  -0.265   0.126   0.147  -1.916   0.040   0.253   0.083  -0.022   0.099  -0.035  -0.059  -0.004
 -0.001   0.008  -0.042   2.276  -0.029   0.005  -0.014   0.040  -0.296   0.031   0.057  -0.013  -0.004  -0.015   0.006   0.000
  0.008   0.000  -0.265  -0.029   4.030  -0.008  -0.006   0.253   0.031  -1.888  -0.236   0.033   0.207   0.014   0.094  -0.008
 -0.329   0.002   0.126   0.005  -0.008   0.337  -0.005  -0.125  -0.008   0.008   0.128  -0.027   0.017   0.000  -0.056  -0.001
  0.002  -0.297   0.147  -0.014  -0.006  -0.005   0.279  -0.133   0.018   0.011  -0.063   0.016   0.009  -0.032  -0.000  -0.000
  0.125   0.147  -1.916   0.040   0.253  -0.125  -0.133   1.748  -0.038  -0.242  -0.071   0.016  -0.090   0.034   0.055   0.006
  0.005  -0.014   0.040  -0.296   0.031  -0.008   0.018  -0.038   0.298  -0.033  -0.049   0.012   0.003   0.008  -0.004  -0.000
 -0.008  -0.006   0.253   0.031  -1.888   0.008   0.011  -0.242  -0.033   1.746   0.210  -0.038  -0.187  -0.011  -0.090   0.012
 -0.141   0.070   0.083   0.057  -0.236   0.128  -0.063  -0.071  -0.049   0.210   1.436  -0.307   0.049   0.016  -0.040  -0.005
  0.023  -0.014  -0.022  -0.013   0.033  -0.027   0.016   0.016   0.012  -0.038  -0.307   0.070  -0.011  -0.003   0.007   0.001
 -0.025  -0.008   0.099  -0.004   0.207   0.017   0.009  -0.090   0.003  -0.187   0.049  -0.011   0.079  -0.004   0.009  -0.005
 -0.000   0.044  -0.035  -0.015   0.014   0.000  -0.032   0.034   0.008  -0.011   0.016  -0.003  -0.004   0.085  -0.002   0.000
  0.073   0.000  -0.059   0.006   0.094  -0.056  -0.000   0.055  -0.004  -0.090  -0.040   0.007   0.009  -0.002   0.104  -0.001
  0.004  -0.001  -0.004   0.000  -0.008  -0.001  -0.000   0.006  -0.000   0.012  -0.005   0.001  -0.005   0.000  -0.001   0.000
  0.000  -0.005   0.001   0.003  -0.001  -0.000   0.002  -0.002  -0.000   0.001  -0.001   0.000   0.000  -0.006   0.000  -0.000
 -0.007   0.000   0.001  -0.001  -0.003   0.004  -0.000  -0.003   0.000   0.006   0.003  -0.001  -0.001   0.000  -0.007   0.000


------------------------ aborting loop because EDIFF is reached ----------------------------------------


 


 total charge     
 
# of ion       s       p       d       tot
------------------------------------------
    1        0.241   0.151   9.320   9.712
    2        0.238   0.146   9.323   9.708
    3        0.238   0.146   9.323   9.708
    4        0.241   0.151   9.320   9.712
    5        0.253   0.158   9.312   9.723
    6        0.241   0.151   9.320   9.712
    7        0.254   0.159   9.312   9.725
    8        0.241   0.151   9.320   9.712
    9        1.835   1.397   0.139   3.370
   10        1.834   1.401   0.138   3.373
   11        1.834   1.401   0.138   3.373
   12        1.834   1.401   0.139   3.373
   13        1.834   1.401   0.139   3.373
   14        1.835   1.397   0.139   3.371
   15        1.833   1.400   0.135   3.368
   16        1.833   1.400   0.135   3.369
   17        1.518   2.742   0.012   4.272
   18        1.518   2.742   0.011   4.272
   19        1.514   2.742   0.017   4.273
   20        1.518   2.742   0.011   4.272
   21        1.518   2.743   0.012   4.273
   22        1.514   2.742   0.017   4.273
   23        1.518   2.742   0.012   4.273
   24        1.518   2.742   0.012   4.272
   25        1.513   2.747   0.016   4.276
   26        1.516   2.743   0.015   4.274
   27        1.513   2.747   0.016   4.276
   28        1.517   2.745   0.013   4.275
   29        1.517   2.745   0.013   4.275
   30        1.514   2.743   0.015   4.272
   31        1.516   2.743   0.015   4.274
   32        1.514   2.743   0.015   4.272
   33        1.518   2.742   0.013   4.273
   34        1.518   2.742   0.012   4.272
   35        1.518   2.742   0.012   4.273
   36        1.514   2.742   0.017   4.273
   37        1.514   2.742   0.017   4.273
   38        1.518   2.742   0.011   4.272
   39        1.518   2.742   0.012   4.272
   40        1.518   2.742   0.011   4.272
   41        1.515   2.744   0.015   4.274
   42        1.514   2.743   0.015   4.272
   43        1.518   2.746   0.012   4.275
   44        1.514   2.743   0.015   4.272
   45        1.513   2.747   0.016   4.276
   46        1.517   2.746   0.012   4.275
   47        1.513   2.747   0.016   4.276
   48        1.515   2.744   0.015   4.274
--------------------------------------------------
tot         65.135 100.207  76.090 241.431
 


--------------------------------------------------------------------------------------------------------



  FREE ENERGIE OF THE ION-ELECTRON SYSTEM (eV)
  ---------------------------------------------------
  free  energy   TOTEN  =      -119.96421332 eV

  energy  without entropy=     -119.96421332  energy(sigma->0) =     -119.96421332
 


--------------------------------------------------------------------------------------------------------




--------------------------------------------------------------------------------------------------------


 writing wavefunctions
     LOOP+:  cpu time  117.7223: real time  117.8186
    4ORBIT:  cpu time    0.0000: real time    0.0000
 


 total charge     
 
# of ion       s       p       d       tot
------------------------------------------
    1        0.241   0.151   9.320   9.712
    2        0.238   0.146   9.323   9.708
    3        0.238   0.146   9.323   9.708
    4        0.241   0.151   9.320   9.712
    5        0.253   0.158   9.312   9.723
    6        0.241   0.151   9.320   9.712
    7        0.254   0.159   9.312   9.725
    8        0.241   0.151   9.320   9.712
    9        1.835   1.397   0.139   3.370
   10        1.834   1.401   0.138   3.373
   11        1.834   1.401   0.138   3.373
   12        1.834   1.401   0.139   3.373
   13        1.834   1.401   0.139   3.373
   14        1.835   1.397   0.139   3.371
   15        1.833   1.400   0.135   3.368
   16        1.833   1.400   0.135   3.369
   17        1.518   2.742   0.012   4.272
   18        1.518   2.742   0.011   4.272
   19        1.514   2.742   0.017   4.273
   20        1.518   2.742   0.011   4.272
   21        1.518   2.743   0.012   4.273
   22        1.514   2.742   0.017   4.273
   23        1.518   2.742   0.012   4.273
   24        1.518   2.742   0.012   4.272
   25        1.513   2.747   0.016   4.276
   26        1.516   2.743   0.015   4.274
   27        1.513   2.747   0.016   4.276
   28        1.517   2.745   0.013   4.275
   29        1.517   2.745   0.013   4.275
   30        1.514   2.743   0.015   4.272
   31        1.516   2.743   0.015   4.274
   32        1.514   2.743   0.015   4.272
   33        1.518   2.742   0.013   4.273
   34        1.518   2.742   0.012   4.272
   35        1.518   2.742   0.012   4.273
   36        1.514   2.742   0.017   4.273
   37        1.514   2.742   0.017   4.273
   38        1.518   2.742   0.011   4.272
   39        1.518   2.742   0.012   4.272
   40        1.518   2.742   0.011   4.272
   41        1.515   2.744   0.015   4.274
   42        1.514   2.743   0.015   4.272
   43        1.518   2.746   0.012   4.275
   44        1.514   2.743   0.015   4.272
   45        1.513   2.747   0.016   4.276
   46        1.517   2.746   0.012   4.275
   47        1.513   2.747   0.016   4.276
   48        1.515   2.744   0.015   4.274
--------------------------------------------------
tot         65.135 100.207  76.090 241.431
 
 BZINTS: Fermi energy:    2.052963;  352.000000 electrons
         Band energy:-0.758623E+03;  BLOECHL correction:    0.000000

 total amount of memory used by VASP MPI-rank0  2782079. kBytes
=======================================================================

   base      :      30000. kBytes
   nonl-proj :     303764. kBytes
   fftplans  :      34720. kBytes
   grid      :      70000. kBytes
   one-center:        746. kBytes
   wavefun   :    2342849. kBytes
 
  
  
 General timing and accounting informations for this job:
 ========================================================
  
                  Total CPU time used (sec):      157.210
                            User time (sec):      152.597
                          System time (sec):        4.613
                         Elapsed time (sec):      158.483
  
                   Maximum memory used (kb):     4341348.
                   Average memory used (kb):           0.
  
                          Minor page faults:       426461
                          Major page faults:            0
                 Voluntary context switches:         2414
