 vasp.6.1.0 28Jan20 (build Jan 13 2021 21:44:47) complex                        
  
 executed on             LinuxIFC date 2021.09.12  19:23:29
 running on    9 total cores
 distrk:  each k-point on    1 cores,    9 groups
 distr:  one band on NCORE=   1 cores,    1 groups


--------------------------------------------------------------------------------------------------------


 INCAR:
 POTCAR:    PAW_PBE Ag 02Apr2005                  
 POTCAR:    PAW_PBE Bi 08Apr2002                  
 POTCAR:    PAW_PBE I 08Apr2002                   
 -----------------------------------------------------------------------------
|                                                                             |
|           W    W    AA    RRRRR   N    N  II  N    N   GGGG   !!!           |
|           W    W   A  A   R    R  NN   N  II  NN   N  G    G  !!!           |
|           W    W  A    A  R    R  N N  N  II  N N  N  G       !!!           |
|           W WW W  AAAAAA  RRRRR   N  N N  II  N  N N  G  GGG   !            |
|           WW  WW  A    A  R   R   N   NN  II  N   NN  G    G                |
|           W    W  A    A  R    R  N    N  II  N    N   GGGG   !!!           |
|                                                                             |
|     For optimal performance we recommend to set                             |
|       NCORE = 4 - approx SQRT(number of cores).                             |
|     NCORE specifies how many cores store one orbital (NPAR=cpu/NCORE).      |
|     This setting can greatly improve the performance of VASP for DFT.       |
|     The default, NCORE=1 might be grossly inefficient on modern             |
|     multi-core architectures or massively parallel machines. Do your        |
|     own testing!!!!                                                         |
|     Unfortunately you need to use the default for GW and RPA                |
|     calculations (for HF NCORE is supported but not extensively tested      |
|     yet).                                                                   |
|                                                                             |
 -----------------------------------------------------------------------------

 POTCAR:    PAW_PBE Ag 02Apr2005                  
   VRHFIN =Ag : s1 d10                                                                              
   LEXCH  = PE                                                                                      
   EATOM  =  1037.2675 eV,   76.2370 Ry                                                             
                                                                                                    
   TITEL  = PAW_PBE Ag 02Apr2005                                                                    
   LULTRA =        F    use ultrasoft PP ?                                                          
   IUNSCR =        1    unscreen: 0-lin 1-nonlin 2-no                                               
   RPACOR =    2.000    partial core radius                                                         
   POMASS =  107.868; ZVAL   =   11.000    mass and valenz                                          
   RCORE  =    2.500    outmost cutoff radius                                                       
   RWIGS  =    2.840; RWIGS  =    1.503    wigner-seitz radius (au A)                               
   ENMAX  =  249.844; ENMIN  =  187.383 eV                                                          
   ICORE  =        3    local potential                                                             
   LCOR   =        T    correct aug charges                                                         
   LPAW   =        T    paw PP                                                                      
   EAUG   =  412.496                                                                                
   DEXC   =    0.000                                                                                
   RMAX   =    2.560    core radius for proj-oper                                                   
   RAUG   =    1.300    factor for augmentation sphere                                              
   RDEP   =    2.576    radius for radial grids                                                     
   RDEPT  =    2.072    core radius for aug-charge                                                  
                                                                                                    
   Atomic configuration                                                                             
   12 entries                                                                                       
     n  l   j            E        occ.                                                              
     1  0  0.50    -25324.9161   2.0000                                                             
     2  0  0.50     -3728.5341   2.0000                                                             
     2  1  1.50     -3344.0404   6.0000                                                             
     3  0  0.50      -683.5581   2.0000                                                             
     3  1  1.50      -557.3225   6.0000                                                             
     3  2  2.50      -358.3853  10.0000                                                             
     4  0  0.50       -95.0341   2.0000                                                             
     4  1  1.50       -58.5511   6.0000                                                             
     4  2  2.50        -7.4440  10.0000                                                             
     5  0  0.50        -4.4045   1.0000                                                             
     5  1  0.50        -1.3606   0.0000                                                             
     4  3  2.50        -1.3606   0.0000                                                             
   Description                                                                                      
     l       E           TYP  RCUT    TYP  RCUT                                                     
     2     -7.4439781     23  2.400                                                                 
     2     -8.8045607     23  2.400                                                                 
     0     -4.4044681     23  2.400                                                                 
     0      1.9520038     23  2.400                                                                 
     1     -1.3605826     23  2.500                                                                 
     1     27.2116520     23  2.500                                                                 
     3     -4.0817478     23  2.400                                                                 
  local pseudopotential read in
  partial core-charges read in
  partial kinetic energy density read in
  atomic valenz-charges read in
  non local Contribution for L=           2  read in
    real space projection operators read in
  non local Contribution for L=           2  read in
    real space projection operators read in
  non local Contribution for L=           0  read in
    real space projection operators read in
  non local Contribution for L=           0  read in
    real space projection operators read in
  non local Contribution for L=           1  read in
    real space projection operators read in
  non local Contribution for L=           1  read in
    real space projection operators read in
    PAW grid and wavefunctions read in
 
   number of l-projection  operators is LMAX  =           6
   number of lm-projection operators is LMMAX =          18
 
 POTCAR:    PAW_PBE Bi 08Apr2002                  
   VRHFIN =Bi:                                                                                      
   LEXCH  = PE                                                                                      
   EATOM  =   150.8133 eV,   11.0845 Ry                                                             
                                                                                                    
   TITEL  = PAW_PBE Bi 08Apr2002                                                                    
   LULTRA =        F    use ultrasoft PP ?                                                          
   IUNSCR =        1    unscreen: 0-lin 1-nonlin 2-no                                               
   RPACOR =    2.200    partial core radius                                                         
   POMASS =  208.980; ZVAL   =    5.000    mass and valenz                                          
   RCORE  =    3.000    outmost cutoff radius                                                       
   RWIGS  =    3.090; RWIGS  =    1.635    wigner-seitz radius (au A)                               
   ENMAX  =  105.037; ENMIN  =   78.777 eV                                                          
   ICORE  =        3    local potential                                                             
   LCOR   =        T    correct aug charges                                                         
   LPAW   =        T    paw PP                                                                      
   EAUG   =  265.427                                                                                
   DEXC   =    0.000                                                                                
   RMAX   =    3.067    core radius for proj-oper                                                   
   RAUG   =    1.300    factor for augmentation sphere                                              
   RDEP   =    3.012    radius for radial grids                                                     
   RDEPT  =    2.604    core radius for aug-charge                                                  
                                                                                                    
   Atomic configuration                                                                             
   17 entries                                                                                       
     n  l   j            E        occ.                                                              
     1  0  0.50    -90639.6582   2.0000                                                             
     2  0  0.50    -16282.4667   2.0000                                                             
     2  1  1.50    -13922.8287   6.0000                                                             
     3  0  0.50     -3930.4763   2.0000                                                             
     3  1  1.50     -3256.7013   6.0000                                                             
     3  2  2.50     -2581.6169  10.0000                                                             
     4  0  0.50      -902.2614   2.0000                                                             
     4  1  1.50      -681.5915   6.0000                                                             
     4  2  2.50      -429.8249  10.0000                                                             
     4  3  3.50      -152.6004  14.0000                                                             
     5  0  0.50      -157.7156   2.0000                                                             
     5  1  1.50       -95.8054   6.0000                                                             
     5  2  2.50       -27.0806  10.0000                                                             
     6  0  0.50       -14.4732   2.0000                                                             
     6  1  1.50        -4.5702   3.0000                                                             
     6  2  2.50        -2.7212   0.0000                                                             
     5  3  2.50        -2.7212   0.0000                                                             
   Description                                                                                      
     l       E           TYP  RCUT    TYP  RCUT                                                     
     0    -14.4732299     23  3.000                                                                 
     0    -12.2452434     23  3.000                                                                 
     1     -4.5701666     23  3.000                                                                 
     1    -13.6058260     23  3.000                                                                 
     2     -2.7211652     23  3.000                                                                 
     3     -1.3605826      7  3.000                                                                 
  local pseudopotential read in
  partial core-charges read in
  partial kinetic energy density read in
  kinetic energy density of atom read in
  atomic valenz-charges read in
  non local Contribution for L=           0  read in
    real space projection operators read in
  non local Contribution for L=           0  read in
    real space projection operators read in
  non local Contribution for L=           1  read in
    real space projection operators read in
  non local Contribution for L=           1  read in
    real space projection operators read in
  non local Contribution for L=           2  read in
    real space projection operators read in
    PAW grid and wavefunctions read in
 
   number of l-projection  operators is LMAX  =           5
   number of lm-projection operators is LMMAX =          13
 
 POTCAR:    PAW_PBE I 08Apr2002                   
   VRHFIN =I : s2p5                                                                                 
   LEXCH  = PE                                                                                      
   EATOM  =   315.8678 eV,   23.2156 Ry                                                             
                                                                                                    
   TITEL  = PAW_PBE I 08Apr2002                                                                     
   LULTRA =        F    use ultrasoft PP ?                                                          
   IUNSCR =        1    unscreen: 0-lin 1-nonlin 2-no                                               
   RPACOR =    2.200    partial core radius                                                         
   POMASS =  126.904; ZVAL   =    7.000    mass and valenz                                          
   RCORE  =    2.300    outmost cutoff radius                                                       
   RWIGS  =    2.810; RWIGS  =    1.487    wigner-seitz radius (au A)                               
   ENMAX  =  175.647; ENMIN  =  131.735 eV                                                          
   ICORE  =        3    local potential                                                             
   LCOR   =        T    correct aug charges                                                         
   LPAW   =        T    paw PP                                                                      
   EAUG   =  370.139                                                                                
   DEXC   =    0.000                                                                                
   RMAX   =    2.359    core radius for proj-oper                                                   
   RAUG   =    1.300    factor for augmentation sphere                                              
   RDEP   =    2.392    radius for radial grids                                                     
   RDEPT  =    2.170    core radius for aug-charge                                                  
                                                                                                    
   Atomic configuration                                                                             
   13 entries                                                                                       
     n  l   j            E        occ.                                                              
     1  0  0.50    -32976.3739   2.0000                                                             
     2  0  0.50     -5094.5933   2.0000                                                             
     2  1  1.50     -4572.0131   6.0000                                                             
     3  0  0.50     -1028.2813   2.0000                                                             
     3  1  1.50      -859.0250   6.0000                                                             
     3  2  2.50      -605.7620  10.0000                                                             
     4  0  0.50      -180.5540   2.0000                                                             
     4  1  1.50      -127.5306   6.0000                                                             
     4  2  2.50       -50.2720  10.0000                                                             
     5  0  0.50       -17.4058   2.0000                                                             
     5  1  0.50        -7.0851   5.0000                                                             
     5  2  1.50        -7.0750   0.0000                                                             
     4  3  2.50        -7.0750   0.0000                                                             
   Description                                                                                      
     l       E           TYP  RCUT    TYP  RCUT                                                     
     0    -17.4058016     23  2.300                                                                 
     0    -18.7663842     23  2.300                                                                 
     1     -7.0850686     23  2.300                                                                 
     1     -4.2150896     23  2.300                                                                 
     2     -7.0750295     23  2.300                                                                 
     3     -1.3605826     23  2.300                                                                 
  local pseudopotential read in
  partial core-charges read in
  partial kinetic energy density read in
  atomic valenz-charges read in
  non local Contribution for L=           0  read in
    real space projection operators read in
  non local Contribution for L=           0  read in
    real space projection operators read in
  non local Contribution for L=           1  read in
    real space projection operators read in
  non local Contribution for L=           1  read in
    real space projection operators read in
  non local Contribution for L=           2  read in
    real space projection operators read in
    PAW grid and wavefunctions read in
 
   number of l-projection  operators is LMAX  =           5
   number of lm-projection operators is LMMAX =          13
 
 -----------------------------------------------------------------------------
|                                                                             |
|               ----> ADVICE to this user running VASP <----                  |
|                                                                             |
|     You have a (more or less) 'large supercell' and for larger cells it     |
|     might be more efficient to use real-space projection operators.         |
|     Therefore, try LREAL= Auto in the INCAR file.                           |
|     Mind: For very accurate calculation, you might also keep the            |
|     reciprocal projection scheme (i.e. LREAL=.FALSE.).                      |
|                                                                             |
 -----------------------------------------------------------------------------

  PAW_PBE Ag 02Apr2005                  :
 energy of atom  1       EATOM=-1037.2675
 kinetic energy error for atom=    0.0686 (will be added to EATOM!!)
  PAW_PBE Bi 08Apr2002                  :
 energy of atom  2       EATOM= -150.8133
 kinetic energy error for atom=    0.0004 (will be added to EATOM!!)
  PAW_PBE I 08Apr2002                   :
 energy of atom  3       EATOM= -315.8678
 kinetic energy error for atom=    0.0044 (will be added to EATOM!!)
 
 
 POSCAR: Generation Seed Number
  positions in direct lattice
  velocities in cartesian coordinates
 exchange correlation table for  LEXCH =        8
   RHO(1)=    0.500       N(1)  =     2000
   RHO(2)=  100.500       N(2)  =     4000
 


--------------------------------------------------------------------------------------------------------


 ion  position               nearest neighbor table
   1  0.525  0.500  0.975-  29 2.96  31 2.96  40 2.97  23 2.97
   2  0.755  0.725  0.988-  48 2.94  23 2.98  27 3.06  31 3.12  47 3.21  21 3.58
   3  0.994  0.225  0.260-  26 2.94  33 2.98  45 3.07  25 3.15  41 3.15  35 3.58
   4  0.998  0.749  0.747-  48 3.02  28 3.03  44 3.06  27 3.09  36 3.26  34 3.28
   5  0.224  1.000  0.276-  43 2.95  41 2.95  18 2.96  33 2.96
   6  0.511  0.275  0.745-  46 2.94  40 2.98  30 3.06  29 3.13  42 3.18  38 3.58
   7  0.753  0.252  0.502-  46 3.02  26 3.03  45 3.06  30 3.09  24 3.25  22 3.29
   8  0.240  0.775  0.506-  28 2.94  18 2.98  44 3.08  32 3.14  43 3.16  20 3.58
   9  0.998  0.996  0.001-  27 3.03  33 3.06  21 3.12  17 3.14  25 3.20  34 3.20
  10  0.252  0.250  0.002-  41 3.07  29 3.07  17 3.14  19 3.14  42 3.18  25 3.19
  11  0.000  0.500  0.500-  28 3.11  26 3.11  36 3.12  24 3.12  20 3.14  35 3.14
  12  0.499  0.004  0.502-  30 3.03  18 3.06  38 3.12  37 3.14  32 3.20  22 3.20
  13  0.750  0.000  0.750-  22 3.11  34 3.11  48 3.11  46 3.11  38 3.14  21 3.14
  14  0.751  0.497  0.250-  45 3.04  23 3.06  35 3.13  39 3.14  47 3.19  24 3.20
  15  0.498  0.750  0.248-  43 3.07  31 3.07  37 3.14  39 3.14  47 3.18  32 3.19
  16  0.251  0.504  0.749-  44 3.04  40 3.06  20 3.13  19 3.14  42 3.19  36 3.20
  17  0.245  0.004  0.990-  10 3.14   9 3.14
  18  0.258  0.009  0.506-   5 2.96   8 2.98  12 3.06
  19  0.240  0.496  0.996-  10 3.14  16 3.14
  20  0.247  0.494  0.504-  16 3.13  11 3.14   8 3.58
  21  0.753  0.007  0.997-   9 3.12  13 3.14   2 3.58
  22  0.750  0.993  0.506-  13 3.11  12 3.20   7 3.29
  23  0.755  0.492  0.009-   1 2.97   2 2.98  14 3.06
  24  0.755  0.507  0.501-  11 3.12  14 3.20   7 3.25
  25  0.002  0.247  0.014-   3 3.15  10 3.19   9 3.20
  26  0.991  0.256  0.489-   3 2.94   7 3.03  11 3.11
  27  0.993  0.758  0.990-   9 3.03   2 3.06   4 3.09
  28  0.011  0.744  0.510-   8 2.94   4 3.03  11 3.11
  29  0.492  0.270  0.990-   1 2.96  10 3.07   6 3.13
  30  0.510  0.242  0.507-  12 3.03   6 3.06   7 3.09
  31  0.510  0.730  0.008-   1 2.96  15 3.07   2 3.12
  32  0.486  0.753  0.498-   8 3.14  15 3.19  12 3.20
  33  0.994  0.992  0.242-   5 2.96   3 2.98   9 3.06
  34  0.995  0.007  0.750-  13 3.11   9 3.20   4 3.28
  35  0.997  0.507  0.254-  14 3.13  11 3.14   3 3.58
  36  0.999  0.493  0.745-  11 3.12  16 3.20   4 3.26
  37  0.510  0.996  0.255-  15 3.14  12 3.14
  38  0.503  0.993  0.747-  12 3.12  13 3.14   6 3.58
  39  0.505  0.504  0.260-  15 3.14  14 3.14
  40  0.491  0.508  0.745-   1 2.97   6 2.98  16 3.06
  41  0.242  0.229  0.242-   5 2.95  10 3.07   3 3.15
  42  0.262  0.253  0.752-   6 3.18  10 3.18  16 3.19
  43  0.258  0.771  0.258-   5 2.95  15 3.07   8 3.16
  44  0.238  0.742  0.745-  16 3.04   4 3.06   8 3.08
  45  0.755  0.258  0.262-  14 3.04   7 3.06   3 3.07
  46  0.740  0.244  0.739-   6 2.94   7 3.02  13 3.11
  47  0.748  0.747  0.239-  15 3.18  14 3.19   2 3.21
  48  0.761  0.756  0.759-   2 2.94   4 3.02  13 3.11
 
 -----------------------------------------------------------------------------
|                                                                             |
|           W    W    AA    RRRRR   N    N  II  N    N   GGGG   !!!           |
|           W    W   A  A   R    R  NN   N  II  NN   N  G    G  !!!           |
|           W    W  A    A  R    R  N N  N  II  N N  N  G       !!!           |
|           W WW W  AAAAAA  RRRRR   N  N N  II  N  N N  G  GGG   !            |
|           WW  WW  A    A  R   R   N   NN  II  N   NN  G    G                |
|           W    W  A    A  R    R  N    N  II  N    N   GGGG   !!!           |
|                                                                             |
|     The determination of the symmetry of your systems shows a strong        |
|     dependence on the tolerance parameter SYMPREC. This is often the        |
|     result of "noise" in the structural parameters (lattice vectors         |
|     and/or ionic positions). Set NWRITE=3 for more details.                 |
|                                                                             |
 -----------------------------------------------------------------------------

  LATTYP: Found a base centered monoclinic cell.
 ALAT       =    53.9937853955
 B/A-ratio  =     0.3332938892
 C/A-ratio  =     0.2357205674
 COS(beta)  =    -0.9428061316
  
  Lattice vectors:
  
 A1 = (   0.0010083941, -12.7235760046,  25.4539152793)
 A2 = ( -12.7242634259,   0.0010547927,  25.4536980682)
 A3 = (  -0.0009003125,  -0.0010414974, -12.7274456533)


Analysis of symmetry for initial positions (statically):
=====================================================================
 Subroutine PRICEL returns:
 Original cell was already a primitive cell.
 

 Routine SETGRP: Setting up the symmetry group for a 
 base centered monoclinic supercell.


 Subroutine GETGRP returns: Found  1 space group operations
 (whereof  1 operations were pure point group operations)
 out of a pool of  4 trial point group operations.


The static configuration has the point symmetry C_1 .


Analysis of symmetry for dynamics (positions and initial velocities):
=====================================================================
 Subroutine PRICEL returns:
 Original cell was already a primitive cell.
 

 Routine SETGRP: Setting up the symmetry group for a 
 base centered monoclinic supercell.


 Subroutine GETGRP returns: Found  1 space group operations
 (whereof  1 operations were pure point group operations)
 out of a pool of  4 trial point group operations.


The dynamic configuration has the point symmetry C_1 .


 Subroutine INISYM returns: Found  1 space group operations
 (whereof  1 operations are pure point group operations),
 and found     1 'primitive' translations


----------------------------------------------------------------------------------------

                                     Primitive cell                                     

  volume of cell :    2061.1786

  direct lattice vectors                    reciprocal lattice vectors
    12.726064051  0.001028202  0.001193238     0.078578892 -0.000004891 -0.000005558
     0.000792231 12.725658999  0.000976027    -0.000006348  0.078581393 -0.000006430
     0.000900312  0.001041497 12.727445653    -0.000007367 -0.000006026  0.078570362

  length of vectors
    12.726064148 12.725659061 12.727445728     0.078578892  0.078581394  0.078570363

  position of ions in fractional coordinates (direct lattice)
     0.524685477  0.500002311  0.975418609
     0.754925147  0.725239800  0.988235788
     0.994465000  0.225322902  0.260310326
     0.997695381  0.749356998  0.747373622
     0.223886427  0.999986201  0.276091049
     0.510760498  0.274914332  0.744915599
     0.752796740  0.251630915  0.502496447
     0.240091182  0.774843071  0.505714010
     0.997988819  0.996295973  0.001466992
     0.251835918  0.249841082  0.002313589
     0.000249277  0.500110431  0.500044584
     0.498596885  0.004035779  0.501867008
     0.750068836  0.000095203  0.749795384
     0.751163612  0.496701016  0.249584286
     0.497860555  0.750317744  0.248318963
     0.250675472  0.503651748  0.749031590
     0.244727063  0.003794758  0.989786329
     0.258334755  0.008533233  0.506102348
     0.239795467  0.496262748  0.995617753
     0.246614462  0.493558105  0.503604035
     0.752815902  0.006739771  0.996536577
     0.749860789  0.993188097  0.505501405
     0.755281480  0.492041494  0.009426854
     0.755476750  0.506964352  0.500843269
     0.001815399  0.247236800  0.014022600
     0.990623318  0.255942842  0.489081133
     0.992963200  0.758272516  0.989772767
     0.011363754  0.744225838  0.509568148
     0.492096335  0.270404822  0.990420526
     0.510216570  0.241934343  0.506529045
     0.510310643  0.729789883  0.008021817
     0.485711326  0.752929758  0.498270919
     0.993838657  0.991706486  0.241650595
     0.994508751  0.007059486  0.750155990
     0.996624521  0.506677178  0.253657585
     0.999442146  0.493101760  0.744725094
     0.510326723  0.996392670  0.255251524
     0.503397714  0.993390787  0.747091698
     0.504535984  0.503922819  0.260357240
     0.490864717  0.508388346  0.744918323
     0.241536079  0.229021006  0.242425841
     0.261747895  0.253130686  0.752374947
     0.257663818  0.771087292  0.258217682
     0.238001435  0.741887752  0.745311692
     0.755181598  0.258328141  0.262076900
     0.739791482  0.244316727  0.739194256
     0.747682945  0.747026725  0.239176788
     0.760846929  0.755888708  0.759371588

  ion indices of the primitive-cell ions
   primitive index   ion index
                 1           1
                 2           2
                 3           3
                 4           4
                 5           5
                 6           6
                 7           7
                 8           8
                 9           9
                10          10
                11          11
                12          12
                13          13
                14          14
                15          15
                16          16
                17          17
                18          18
                19          19
                20          20
                21          21
                22          22
                23          23
                24          24
                25          25
                26          26
                27          27
                28          28
                29          29
                30          30
                31          31
                32          32
                33          33
                34          34
                35          35
                36          36
                37          37
                38          38
                39          39
                40          40
                41          41
                42          42
                43          43
                44          44
                45          45
                46          46
                47          47
                48          48

----------------------------------------------------------------------------------------

 
 
 KPOINTS: agbii                                   

Automatic generation of k-mesh.
Space group operators:
 irot       det(A)        alpha          n_x          n_y          n_z        tau_x        tau_y        tau_z
    1     1.000000     0.000000     1.000000     0.000000     0.000000     0.000000     0.000000     0.000000
 TETIRR: Found    192 inequivalent tetrahedra from      384
 
 Subroutine IBZKPT returns following result:
 ===========================================
 
 Found     36 irreducible k-points:
 
 Following reciprocal coordinates:
            Coordinates               Weight
  0.000000  0.000000  0.000000      1.000000
  0.250000  0.000000  0.000000      2.000000
 -0.000000 -0.250000 -0.000000      2.000000
  0.500000  0.000000 -0.000000      1.000000
  0.000000  0.500000 -0.000000      1.000000
  0.250000  0.250000 -0.000000      2.000000
  0.500000  0.250000 -0.000000      2.000000
 -0.250000  0.500000  0.000000      2.000000
 -0.250000  0.250000  0.000000      2.000000
  0.500000  0.500000  0.000000      1.000000
 -0.000000  0.000000  0.250000      2.000000
  0.250000  0.000000  0.250000      2.000000
  0.000000 -0.250000 -0.250000      2.000000
  0.500000  0.000000  0.250000      2.000000
 -0.000000  0.500000 -0.250000      2.000000
 -0.250000 -0.000000  0.250000      2.000000
  0.000000  0.250000 -0.250000      2.000000
  0.250000  0.250000  0.250000      2.000000
  0.500000  0.250000  0.250000      2.000000
 -0.250000  0.500000 -0.250000      2.000000
 -0.250000  0.250000  0.250000      2.000000
 -0.250000  0.250000 -0.250000      2.000000
  0.500000  0.500000  0.250000      2.000000
 -0.250000  0.500000  0.250000      2.000000
  0.500000  0.250000 -0.250000      2.000000
 -0.250000 -0.250000  0.250000      2.000000
 -0.000000  0.000000  0.500000      1.000000
  0.250000  0.000000  0.500000      2.000000
 -0.000000 -0.250000  0.500000      2.000000
  0.500000  0.000000  0.500000      1.000000
 -0.000000  0.500000  0.500000      1.000000
  0.250000  0.250000  0.500000      2.000000
  0.500000  0.250000  0.500000      2.000000
 -0.250000  0.500000  0.500000      2.000000
 -0.250000  0.250000  0.500000      2.000000
  0.500000  0.500000  0.500000      1.000000
 
 Following cartesian coordinates:
            Coordinates               Weight
  0.000000  0.000000  0.000000      1.000000
  0.019645 -0.000001 -0.000001      2.000000
  0.000002 -0.019645  0.000002      2.000000
  0.039289 -0.000002 -0.000003      1.000000
 -0.000003  0.039291 -0.000003      1.000000
  0.019643  0.019644 -0.000003      2.000000
  0.039288  0.019643 -0.000004      2.000000
 -0.019648  0.039292 -0.000002      2.000000
 -0.019646  0.019647 -0.000000      2.000000
  0.039286  0.039288 -0.000006      1.000000
 -0.000002 -0.000002  0.019643      2.000000
  0.019643 -0.000003  0.019641      2.000000
  0.000003 -0.019644 -0.019641      2.000000
  0.039288 -0.000004  0.019640      2.000000
 -0.000001  0.039292 -0.019646      2.000000
 -0.019647 -0.000000  0.019644      2.000000
  0.000000  0.019647 -0.019644      2.000000
  0.019641  0.019643  0.019640      2.000000
  0.039286  0.019641  0.019638      2.000000
 -0.019646  0.039293 -0.019644      2.000000
 -0.019648  0.019645  0.019642      2.000000
 -0.019644  0.019648 -0.019643      2.000000
  0.039284  0.039287  0.019637      2.000000
 -0.019650  0.039290  0.019641      2.000000
  0.039290  0.019644 -0.019647      2.000000
 -0.019645 -0.019646  0.019646      2.000000
 -0.000004 -0.000003  0.039285      1.000000
  0.019641 -0.000004  0.039284      2.000000
 -0.000002 -0.019648  0.039287      2.000000
  0.039286 -0.000005  0.039282      1.000000
 -0.000007  0.039288  0.039282      1.000000
  0.019639  0.019641  0.039282      2.000000
  0.039284  0.019640  0.039281      2.000000
 -0.019652  0.039289  0.039283      2.000000
 -0.019650  0.019644  0.039285      2.000000
  0.039283  0.039285  0.039279      1.000000
 


--------------------------------------------------------------------------------------------------------




 Dimension of arrays:
   k-points           NKPTS =     36   k-points in BZ     NKDIM =     36   number of bands    NBANDS=    211
   number of dos      NEDOS =   3000   number of ions     NIONS =     48
   non local maximal  LDIM  =      6   non local SUM 2l+1 LMDIM =     18
   total plane-waves  NPLWV = 125000
   max r-space proj   IRMAX =      1   max aug-charges    IRDMAX=   5976
   dimension x,y,z NGX =    50 NGY =   50 NGZ =   50
   dimension x,y,z NGXF=   100 NGYF=  100 NGZF=  100
   support grid    NGXF=   100 NGYF=  100 NGZF=  100
   ions per type =               8   8  32
   NGX,Y,Z   is equivalent  to a cutoff of   6.53,  6.53,  6.53 a.u.
   NGXF,Y,Z  is equivalent  to a cutoff of  13.06, 13.06, 13.06 a.u.

 SYSTEM =  unknown system                          
 POSCAR =  Generation Seed Number                  

 Startparameter for this run:
   NWRITE =      2    write-flag & timer
   PREC   = normal    normal or accurate (medium, high low for compatibility)
   ISTART =      1    job   : 0-new  1-cont  2-samecut
   ICHARG =      1    charge: 1-file 2-atom 10-const
   ISPIN  =      1    spin polarized calculation?
   LNONCOLLINEAR =      F non collinear calculations
   LSORBIT =      F    spin-orbit coupling
   INIWAV =      1    electr: 0-lowe 1-rand  2-diag
   LASPH  =      F    aspherical Exc in radial PAW
   METAGGA=      F    non-selfconsistent MetaGGA calc.

 Electronic Relaxation 1
   ENCUT  =  250.0 eV  18.37 Ry    4.29 a.u.  16.41 16.41 16.41*2*pi/ulx,y,z
   ENINI  =  250.0     initial cutoff
   ENAUG  =  412.5 eV  augmentation charge cutoff
   NELM   =     60;   NELMIN=  2; NELMDL=  0     # of ELM steps 
   EDIFF  = 0.1E-05   stopping-criterion for ELM
   LREAL  =      F    real-space projection
   NLSPLINE    = F    spline interpolate recip. space projectors
   LCOMPAT=      F    compatible to vasp.4.4
   GGA_COMPAT  = T    GGA compatible to vasp.4.4-vasp.4.6
   LMAXPAW     = -100 max onsite density
   LMAXMIX     =    4 max onsite mixed and CHGCAR
   VOSKOWN=      0    Vosko Wilk Nusair interpolation
   ROPT   =    0.00000   0.00000   0.00000
 Ionic relaxation
   EDIFFG = -.1E-01   stopping-criterion for IOM
   NSW    =      0    number of steps for IOM
   NBLOCK =      1;   KBLOCK =      1    inner block; outer block 
   IBRION =     -1    ionic relax: 0-MD 1-quasi-New 2-CG
   NFREE  =      0    steps in history (QN), initial steepest desc. (CG)
   ISIF   =     -1    stress and relaxation
   IWAVPR =     10    prediction:  0-non 1-charg 2-wave 3-comb
   ISYM   =      2    0-nonsym 1-usesym 2-fastsym
   LCORR  =      T    Harris-Foulkes like correction to forces

   POTIM  = 0.5000    time-step for ionic-motion
   TEIN   =    0.0    initial temperature
   TEBEG  =    0.0;   TEEND  =   0.0 temperature during run
   SMASS  =  -3.00    Nose mass-parameter (am)
   estimated Nose-frequenzy (Omega)   =  0.10E-29 period in steps = 0.13E+47 mass=  -0.370E-26a.u.
   SCALEE = 1.0000    scale energy and forces
   NPACO  =    256;   APACO  = 16.0  distance and # of slots for P.C.
   PSTRESS=    0.0 pullay stress

  Mass of Ions in am
   POMASS = 107.87208.98126.90
  Ionic Valenz
   ZVAL   =  11.00  5.00  7.00
  Atomic Wigner-Seitz radii
   RWIGS  =  -1.00 -1.00 -1.00
  virtual crystal weights 
   VCA    =   1.00  1.00  1.00
   NELECT =     352.0000    total number of electrons
   NUPDOWN=      -1.0000    fix difference up-down

 DOS related values:
   EMIN   =  10.00;   EMAX   =-10.00  energy-range for DOS
   EFERMI =   0.00
   ISMEAR =    -5;   SIGMA  =   0.20  broadening in eV -4-tet -1-fermi 0-gaus

 Electronic relaxation 2 (details)
   IALGO  =     38    algorithm
   LDIAG  =      T    sub-space diagonalisation (order eigenvalues)
   LSUBROT=      F    optimize rotation matrix (better conditioning)
   TURBO    =      0    0=normal 1=particle mesh
   IRESTART =      0    0=no restart 2=restart with 2 vectors
   NREBOOT  =      0    no. of reboots
   NMIN     =      0    reboot dimension
   EREF     =   0.00    reference energy to select bands
   IMIX   =      4    mixing-type and parameters
     AMIX     =   0.40;   BMIX     =  1.00
     AMIX_MAG =   1.60;   BMIX_MAG =  1.00
     AMIN     =   0.10
     WC   =   100.;   INIMIX=   1;  MIXPRE=   1;  MAXMIX= -45

 Intra band minimization:
   WEIMIN = 0.0000     energy-eigenvalue tresh-hold
   EBREAK =  0.12E-08  absolut break condition
   DEPER  =   0.30     relativ break condition  

   TIME   =   0.40     timestep for ELM

  volume/ion in A,a.u.               =      42.94       289.78
  Fermi-wavevector in a.u.,A,eV,Ry     =   0.908275  1.716390 11.224300  0.824963
  Thomas-Fermi vector in A             =   2.032181
 
 Write flags
   LWAVE        =      T    write WAVECAR
   LDOWNSAMPLE  =      F    k-point downsampling of WAVECAR
   LCHARG       =      T    write CHGCAR
   LVTOT        =      F    write LOCPOT, total local potential
   LVHAR        =      F    write LOCPOT, Hartree potential only
   LELF         =      F    write electronic localiz. function (ELF)
   LORBIT       =     10    0 simple, 1 ext, 2 COOP (PROOUT), +10 PAW based schemes


 Dipole corrections
   LMONO  =      F    monopole corrections only (constant potential shift)
   LDIPOL =      F    correct potential (dipole corrections)
   IDIPOL =      0    1-x, 2-y, 3-z, 4-all directions 
   EPSILON=  1.0000000 bulk dielectric constant

 Exchange correlation treatment:
   GGA     =    --    GGA type
   LEXCH   =     8    internal setting for exchange type
   VOSKOWN=      0    Vosko Wilk Nusair interpolation
   LHFCALC =     F    Hartree Fock is set to
   LHFONE  =     F    Hartree Fock one center treatment
   AEXX    =    0.0000 exact exchange contribution

 Linear response parameters
   LEPSILON=     F    determine dielectric tensor
   LRPA    =     F    only Hartree local field effects (RPA)
   LNABLA  =     F    use nabla operator in PAW spheres
   LVEL    =     F    velocity operator in full k-point grid
   LINTERFAST=   F  fast interpolation
   KINTER  =     0    interpolate to denser k-point grid
   CSHIFT  =0.1000    complex shift for real part using Kramers Kronig
   OMEGAMAX=  -1.0    maximum frequency
   DEG_THRESHOLD= 0.2000000E-02 threshold for treating states as degnerate
   RTIME   =   -0.100 relaxation time in fs
  (WPLASMAI=    0.000 imaginary part of plasma frequency in eV, 0.658/RTIME)
   DFIELD  = 0.0000000 0.0000000 0.0000000 field for delta impulse in time
 
 Orbital magnetization related:
   ORBITALMAG=     F  switch on orbital magnetization
   LCHIMAG   =     F  perturbation theory with respect to B field
   DQ        =  0.001000  dq finite difference perturbation B field
   LLRAUG    =     F  two centre corrections for induced B field



--------------------------------------------------------------------------------------------------------


 Static calculation
 charge density and potential will be updated during run
 non-spin polarized calculation
 Variant of blocked Davidson
 Davidson routine will perform the subspace rotation
 perform sub-space diagonalisation
    after iterative eigenvector-optimisation
 modified Broyden-mixing scheme, WC =      100.0
 initial mixing is a Kerker type mixing with AMIX =  0.4000 and BMIX =      1.0000
 Hartree-type preconditioning will be used
 using additional bands           35
 reciprocal scheme for non local part
 use partial core corrections
 calculate Harris-corrections to forces 
   (improved forces if not selfconsistent)
 use gradient corrections 
 use of overlap-Matrix (Vanderbilt PP)
 Fermi weights with tetrahedron method with Bloechl corrections


--------------------------------------------------------------------------------------------------------


  energy-cutoff  :      250.00
  volume of cell :     2061.18
      direct lattice vectors                 reciprocal lattice vectors
    12.726064051  0.001028202  0.001193238     0.078578892 -0.000004891 -0.000005558
     0.000792231 12.725658999  0.000976027    -0.000006348  0.078581393 -0.000006430
     0.000900312  0.001041497 12.727445653    -0.000007367 -0.000006026  0.078570362

  length of vectors
    12.726064148 12.725659061 12.727445728     0.078578892  0.078581394  0.078570363


 
 old parameters found on file WAVECAR:
  energy-cutoff  :      250.00
  volume of cell :     2061.18
      direct lattice vectors                 reciprocal lattice vectors
    12.726064051  0.001028202  0.001193238     0.078578892 -0.000004891 -0.000005558
     0.000792231 12.725658999  0.000976027    -0.000006348  0.078581393 -0.000006430
     0.000900312  0.001041497 12.727445653    -0.000007367 -0.000006026  0.078570362

  length of vectors

 
 k-points in units of 2pi/SCALE and weight: agbii                                   
   0.00000000  0.00000000  0.00000000       0.016
   0.01964472 -0.00000122 -0.00000139       0.031
   0.00000159 -0.01964535  0.00000161       0.031
   0.03928945 -0.00000245 -0.00000278       0.016
  -0.00000317  0.03929070 -0.00000321       0.016
   0.01964314  0.01964413 -0.00000300       0.031
   0.03928786  0.01964290 -0.00000439       0.031
  -0.01964790  0.03929192 -0.00000183       0.031
  -0.01964631  0.01964657 -0.00000022       0.031
   0.03928627  0.03928825 -0.00000599       0.016
  -0.00000184 -0.00000151  0.01964259       0.031
   0.01964288 -0.00000273  0.01964120       0.031
   0.00000343 -0.01964384 -0.01964098       0.031
   0.03928760 -0.00000395  0.01963981       0.031
  -0.00000133  0.03929220 -0.01964581       0.031
  -0.01964656 -0.00000028  0.01964398       0.031
   0.00000025  0.01964685 -0.01964420       0.031
   0.01964129  0.01964262  0.01963959       0.031
   0.03928602  0.01964140  0.01963820       0.031
  -0.01964606  0.03929343 -0.01964442       0.031
  -0.01964815  0.01964506  0.01964237       0.031
  -0.01964447  0.01964808 -0.01964281       0.031
   0.03928443  0.03928674  0.01963660       0.031
  -0.01964974  0.03929041  0.01964077       0.031
   0.03928970  0.01964441 -0.01964698       0.031
  -0.01964498 -0.01964563  0.01964559       0.031
  -0.00000368 -0.00000301  0.03928518       0.016
   0.01964104 -0.00000424  0.03928379       0.031
  -0.00000210 -0.01964836  0.03928679       0.031
   0.03928576 -0.00000546  0.03928240       0.016
  -0.00000686  0.03928768  0.03928197       0.016
   0.01963945  0.01964111  0.03928218       0.031
   0.03928418  0.01963989  0.03928079       0.031
  -0.01965158  0.03928891  0.03928336       0.031
  -0.01964999  0.01964356  0.03928496       0.031
   0.03928259  0.03928524  0.03927919       0.016
 
 k-points in reciprocal lattice and weights: agbii                                   
   0.00000000  0.00000000  0.00000000       0.016
   0.25000000  0.00000000  0.00000000       0.031
  -0.00000000 -0.25000000 -0.00000000       0.031
   0.50000000  0.00000000 -0.00000000       0.016
   0.00000000  0.50000000 -0.00000000       0.016
   0.25000000  0.25000000 -0.00000000       0.031
   0.50000000  0.25000000 -0.00000000       0.031
  -0.25000000  0.50000000  0.00000000       0.031
  -0.25000000  0.25000000  0.00000000       0.031
   0.50000000  0.50000000  0.00000000       0.016
  -0.00000000  0.00000000  0.25000000       0.031
   0.25000000  0.00000000  0.25000000       0.031
   0.00000000 -0.25000000 -0.25000000       0.031
   0.50000000  0.00000000  0.25000000       0.031
  -0.00000000  0.50000000 -0.25000000       0.031
  -0.25000000 -0.00000000  0.25000000       0.031
   0.00000000  0.25000000 -0.25000000       0.031
   0.25000000  0.25000000  0.25000000       0.031
   0.50000000  0.25000000  0.25000000       0.031
  -0.25000000  0.50000000 -0.25000000       0.031
  -0.25000000  0.25000000  0.25000000       0.031
  -0.25000000  0.25000000 -0.25000000       0.031
   0.50000000  0.50000000  0.25000000       0.031
  -0.25000000  0.50000000  0.25000000       0.031
   0.50000000  0.25000000 -0.25000000       0.031
  -0.25000000 -0.25000000  0.25000000       0.031
  -0.00000000  0.00000000  0.50000000       0.016
   0.25000000  0.00000000  0.50000000       0.031
  -0.00000000 -0.25000000  0.50000000       0.031
   0.50000000  0.00000000  0.50000000       0.016
  -0.00000000  0.50000000  0.50000000       0.016
   0.25000000  0.25000000  0.50000000       0.031
   0.50000000  0.25000000  0.50000000       0.031
  -0.25000000  0.50000000  0.50000000       0.031
  -0.25000000  0.25000000  0.50000000       0.031
   0.50000000  0.50000000  0.50000000       0.016
 
 position of ions in fractional coordinates (direct lattice) 
   0.52468548  0.50000231  0.97541861
   0.75492515  0.72523980  0.98823579
   0.99446500  0.22532290  0.26031033
   0.99769538  0.74935700  0.74737362
   0.22388643  0.99998620  0.27609105
   0.51076050  0.27491433  0.74491560
   0.75279674  0.25163091  0.50249645
   0.24009118  0.77484307  0.50571401
   0.99798882  0.99629597  0.00146699
   0.25183592  0.24984108  0.00231359
   0.00024928  0.50011043  0.50004458
   0.49859689  0.00403578  0.50186701
   0.75006884  0.00009520  0.74979538
   0.75116361  0.49670102  0.24958429
   0.49786055  0.75031774  0.24831896
   0.25067547  0.50365175  0.74903159
   0.24472706  0.00379476  0.98978633
   0.25833476  0.00853323  0.50610235
   0.23979547  0.49626275  0.99561775
   0.24661446  0.49355811  0.50360404
   0.75281590  0.00673977  0.99653658
   0.74986079  0.99318810  0.50550140
   0.75528148  0.49204149  0.00942685
   0.75547675  0.50696435  0.50084327
   0.00181540  0.24723680  0.01402260
   0.99062332  0.25594284  0.48908113
   0.99296320  0.75827252  0.98977277
   0.01136375  0.74422584  0.50956815
   0.49209633  0.27040482  0.99042053
   0.51021657  0.24193434  0.50652905
   0.51031064  0.72978988  0.00802182
   0.48571133  0.75292976  0.49827092
   0.99383866  0.99170649  0.24165059
   0.99450875  0.00705949  0.75015599
   0.99662452  0.50667718  0.25365759
   0.99944215  0.49310176  0.74472509
   0.51032672  0.99639267  0.25525152
   0.50339771  0.99339079  0.74709170
   0.50453598  0.50392282  0.26035724
   0.49086472  0.50838835  0.74491832
   0.24153608  0.22902101  0.24242584
   0.26174789  0.25313069  0.75237495
   0.25766382  0.77108729  0.25821768
   0.23800144  0.74188775  0.74531169
   0.75518160  0.25832814  0.26207690
   0.73979148  0.24431673  0.73919426
   0.74768294  0.74702673  0.23917679
   0.76084693  0.75588871  0.75937159
 
 position of ions in cartesian coordinates  (Angst):
   6.67845529  6.36441429 12.41570143
   9.60869005  9.23095985 12.57932594
  12.65603815  2.86867604  3.31449208
  12.69800186  9.53786584  9.51407903
   2.85023379 12.72600114  3.51517699
   6.50085926  3.49976704  9.48175058
   9.58079128  3.20346659  6.39664009
   3.05648491  9.86116226  6.43749033
  12.70126025 12.67955047  0.02083431
   3.20508004  3.17965376  0.02999043
   0.00401872  6.36475586  6.36477869
   6.34563093  0.05239330  6.38808396
   9.54609918  0.00276366  9.54387510
   9.55997445  6.32188004  3.17795155
   6.33662330  9.54905828  3.16179251
   3.19118548  6.41033825  9.53404954
   3.11530640  0.04957329 12.59774743
   3.28804705  0.10938373  6.44170672
   3.05294199  6.31655400 12.67244134
   3.13927585  6.28163022  6.41036899
   9.58128593  0.08757996 12.68426999
   9.54401837 12.64027053  6.43560580
   9.61215879  6.26233866  0.12136124
   9.61509806  6.45275388  6.37585177
   0.02331138  3.14626768  0.17871535
  12.60737889  3.25856927  6.22618540
  12.63800512  9.65156928 12.59920404
   0.14566424  9.47130663  6.48624086
   6.26355539  3.44261705 12.60637453
   6.49369645  3.07982610  6.44766584
   6.49483131  9.28759025  0.10341846
   6.18223854  9.58254570  6.34303049
  12.64865763 12.62139212  3.07774863
  12.65686303  0.09164046  9.54876317
  12.68373727  6.44908990  3.23009687
  12.72002589  6.27684810  9.48012202
   6.49546975 12.68054391  3.25028134
   6.40773116 12.64284809  9.51013923
   6.42139087  6.41353989  3.31477650
   6.24784925  6.47085727  9.48198939
   3.07420331  2.91494406  3.08597346
   3.33189838  3.22230752  9.57637064
   3.27988960  9.81312780  3.28751157
   3.03008027  9.44203150  9.48692214
   9.61093000  3.28844527  3.33672275
   9.41549284  3.11062188  9.40917592
   9.51586819  9.50742524  3.04573086
   9.68386927  9.62075512  9.66650626
 


--------------------------------------------------------------------------------------------------------


 k-point   1 :   0.0000 0.0000 0.0000  plane waves:   18613
 k-point   2 :   0.2500 0.0000 0.0000  plane waves:   18533
 k-point   3 :  -0.0000-0.2500-0.0000  plane waves:   18533
 k-point   4 :   0.5000 0.0000-0.0000  plane waves:   18478
 k-point   5 :   0.0000 0.5000-0.0000  plane waves:   18478
 k-point   6 :   0.2500 0.2500-0.0000  plane waves:   18509
 k-point   7 :   0.5000 0.2500-0.0000  plane waves:   18506
 k-point   8 :  -0.2500 0.5000 0.0000  plane waves:   18506
 k-point   9 :  -0.2500 0.2500 0.0000  plane waves:   18509
 k-point  10 :   0.5000 0.5000 0.0000  plane waves:   18528
 k-point  11 :  -0.0000 0.0000 0.2500  plane waves:   18533
 k-point  12 :   0.2500 0.0000 0.2500  plane waves:   18509
 k-point  13 :   0.0000-0.2500-0.2500  plane waves:   18509
 k-point  14 :   0.5000 0.0000 0.2500  plane waves:   18506
 k-point  15 :  -0.0000 0.5000-0.2500  plane waves:   18506
 k-point  16 :  -0.2500-0.0000 0.2500  plane waves:   18509
 k-point  17 :   0.0000 0.2500-0.2500  plane waves:   18509
 k-point  18 :   0.2500 0.2500 0.2500  plane waves:   18497
 k-point  19 :   0.5000 0.2500 0.2500  plane waves:   18478
 k-point  20 :  -0.2500 0.5000-0.2500  plane waves:   18478
 k-point  21 :  -0.2500 0.2500 0.2500  plane waves:   18513
 k-point  22 :  -0.2500 0.2500-0.2500  plane waves:   18512
 k-point  23 :   0.5000 0.5000 0.2500  plane waves:   18500
 k-point  24 :  -0.2500 0.5000 0.2500  plane waves:   18478
 k-point  25 :   0.5000 0.2500-0.2500  plane waves:   18478
 k-point  26 :  -0.2500-0.2500 0.2500  plane waves:   18510
 k-point  27 :  -0.0000 0.0000 0.5000  plane waves:   18476
 k-point  28 :   0.2500 0.0000 0.5000  plane waves:   18506
 k-point  29 :  -0.0000-0.2500 0.5000  plane waves:   18506
 k-point  30 :   0.5000 0.0000 0.5000  plane waves:   18528
 k-point  31 :  -0.0000 0.5000 0.5000  plane waves:   18528
 k-point  32 :   0.2500 0.2500 0.5000  plane waves:   18478
 k-point  33 :   0.5000 0.2500 0.5000  plane waves:   18500
 k-point  34 :  -0.2500 0.5000 0.5000  plane waves:   18500
 k-point  35 :  -0.2500 0.2500 0.5000  plane waves:   18478
 k-point  36 :   0.5000 0.5000 0.5000  plane waves:   18504

 maximum and minimum number of plane-waves per node :     18613    18476

 maximum number of plane-waves:     18613
 maximum index in each direction: 
   IXMAX=   16   IYMAX=   16   IZMAX=   16
   IXMIN=  -16   IYMIN=  -16   IZMIN=  -16


 serial   3D FFT for wavefunctions
 parallel 3D FFT for charge:
    minimum data exchange during FFTs selected (reduces bandwidth)


 total amount of memory used by VASP MPI-rank0  2782079. kBytes
=======================================================================

   base      :      30000. kBytes
   nonl-proj :     303764. kBytes
   fftplans  :      34720. kBytes
   grid      :      70000. kBytes
   one-center:        746. kBytes
   wavefun   :    2342849. kBytes
 
     INWAV:  cpu time    4.5439: real time    4.8879
 Broyden mixing: mesh for mixing (old mesh)
   NGX = 33   NGY = 33   NGZ = 33
  (NGX  =100   NGY  =100   NGZ  =100)
  gives a total of  35937 points

 initial charge density was supplied:
 number of electron     352.0000431 magnetization 
 keeping initial charge density in first step


--------------------------------------------------------------------------------------------------------


 Maximum index for augmentation-charges         5608 (set IRDMAX)


--------------------------------------------------------------------------------------------------------


 First call to EWALD:  gamma=   0.139
 Maximum number of real-space cells 3x 3x 3
 Maximum number of reciprocal cells 3x 3x 3

    FEWALD:  cpu time    0.0026: real time    0.0026


--------------------------------------- Iteration      1(   1)  ---------------------------------------


    POTLOK:  cpu time    0.4768: real time    0.8791
    SETDIJ:  cpu time    0.0266: real time    0.0266
     EDDAV:  cpu time   57.5274: real time   57.5278
 BZINTS: Fermi energy:    2.054473;  352.000000 electrons
         Band energy:-0.758673E+03;  BLOECHL correction:    0.000000
       DOS:  cpu time    0.0587: real time    0.0587
    CHARGE:  cpu time    1.2411: real time    1.2412
    MIXING:  cpu time    0.0260: real time    0.0260
    --------------------------------------------
      LOOP:  cpu time   59.3567: real time   59.7596

 eigenvalue-minimisations  : 10544
 total energy-change (2. order) :-0.1199644E+03  (-0.2798967E-06)
 number of electron     352.0000431 magnetization 
 augmentation part      -23.1226698 magnetization 

 Broyden mixing:
  rms(total) = 0.69836E-03    rms(broyden)= 0.69833E-03
  rms(prec ) = 0.80663E-03
  weight for this iteration     100.00

 Free energy of the ion-electron system (eV)
  ---------------------------------------------------
  alpha Z        PSCENC =       225.93788835
  Ewald energy   TEWEN  =    -13868.15494652
  -Hartree energ DENC   =     -6080.91370724
  -exchange      EXHF   =         0.00000000
  -V(xc)+E(xc)   XCENC  =     -1392.36030798
  PAW double counting   =     22641.07324296   -20498.59685191
  entropy T*S    EENTRO =         0.00000000
  eigenvalues    EBANDS =      -758.67344186
  atomic energy  EATOM  =     19611.72375700
  Solvation  Ediel_sol  =         0.00000000
  ---------------------------------------------------
  free energy    TOTEN  =      -119.96436722 eV

  energy without entropy =     -119.96436722  energy(sigma->0) =     -119.96436722


--------------------------------------------------------------------------------------------------------




--------------------------------------- Iteration      1(   2)  ---------------------------------------


    POTLOK:  cpu time    0.5596: real time    0.5598
    SETDIJ:  cpu time    0.0570: real time    0.0570
     EDDAV:  cpu time   48.6153: real time   48.6156
 BZINTS: Fermi energy:    2.054595;  352.000000 electrons
         Band energy:-0.758669E+03;  BLOECHL correction:    0.000000
       DOS:  cpu time    0.0541: real time    0.0541
    --------------------------------------------
      LOOP:  cpu time   49.2858: real time   49.2863

 eigenvalue-minimisations  :  8216
 total energy-change (2. order) : 0.3310561E-09  (-0.1198705E-06)
 number of electron     352.0000431 magnetization 
 augmentation part      -23.1226698 magnetization 

 Free energy of the ion-electron system (eV)
  ---------------------------------------------------
  alpha Z        PSCENC =       225.93788835
  Ewald energy   TEWEN  =    -13868.15494652
  -Hartree energ DENC   =     -6080.91728324
  -exchange      EXHF   =         0.00000000
  -V(xc)+E(xc)   XCENC  =     -1392.35982455
  PAW double counting   =     22640.63474004   -20498.15920142
  entropy T*S    EENTRO =         0.00000000
  eigenvalues    EBANDS =      -758.66949687
  atomic energy  EATOM  =     19611.72375700
  Solvation  Ediel_sol  =         0.00000000
  ---------------------------------------------------
  free energy    TOTEN  =      -119.96436721 eV

  energy without entropy =     -119.96436721  energy(sigma->0) =     -119.96436721


--------------------------------------------------------------------------------------------------------




 average (electrostatic) potential at core
  the test charge radii are     1.1249  1.4024  1.1875
  (the norm of the test charge is              1.0000)
       1 -75.1927       2 -75.0697       3 -75.0618       4 -75.0037       5 -75.1906
       6 -75.0680       7 -75.0027       8 -75.0621       9 -65.5331      10 -65.4764
      11 -65.5057      12 -65.5329      13 -65.5061      14 -65.5309      15 -65.4755
      16 -65.5324      17 -93.3170      18 -93.2307      19 -93.3210      20 -93.3374
      21 -93.3351      22 -93.3161      23 -93.2345      24 -93.3232      25 -93.1912
      26 -92.9995      27 -93.0819      28 -93.0017      29 -93.0955      30 -93.0804
      31 -93.0995      32 -93.1937      33 -93.2322      34 -93.3168      35 -93.3354
      36 -93.3205      37 -93.3178      38 -93.3351      39 -93.3203      40 -93.2340
      41 -93.0825      42 -93.1795      43 -93.0775      44 -93.0776      45 -93.0740
      46 -93.0107      47 -93.1719      48 -93.0115
 
 
 
 E-fermi :   2.0546     XC(G=0):  -7.8002     alpha+bet : -7.7655


 k-point     1 :       0.0000    0.0000    0.0000
  band No.  band energies     occupation 
      1     -10.8447      2.00000
      2     -10.7164      2.00000
      3     -10.6688      2.00000
      4     -10.5349      2.00000
      5     -10.4818      2.00000
      6     -10.2571      2.00000
      7     -10.2231      2.00000
      8     -10.0443      2.00000
      9      -9.8884      2.00000
     10      -9.8818      2.00000
     11      -9.8683      2.00000
     12      -9.8508      2.00000
     13      -9.8463      2.00000
     14      -9.8074      2.00000
     15      -9.8052      2.00000
     16      -9.7411      2.00000
     17      -9.7314      2.00000
     18      -9.7146      2.00000
     19      -9.7067      2.00000
     20      -9.7029      2.00000
     21      -9.6836      2.00000
     22      -9.6602      2.00000
     23      -9.6539      2.00000
     24      -9.6259      2.00000
     25      -9.6155      2.00000
     26      -9.6062      2.00000
     27      -9.5894      2.00000
     28      -9.5629      2.00000
     29      -9.5548      2.00000
     30      -9.5509      2.00000
     31      -9.5438      2.00000
     32      -9.5116      2.00000
     33      -8.2236      2.00000
     34      -8.1243      2.00000
     35      -8.1129      2.00000
     36      -7.8830      2.00000
     37      -7.8568      2.00000
     38      -7.6462      2.00000
     39      -7.6327      2.00000
     40      -7.6307      2.00000
     41      -1.8220      2.00000
     42      -1.7616      2.00000
     43      -1.7186      2.00000
     44      -1.7031      2.00000
     45      -1.6565      2.00000
     46      -1.5867      2.00000
     47      -1.5322      2.00000
     48      -1.4764      2.00000
     49      -1.4728      2.00000
     50      -1.4396      2.00000
     51      -1.4369      2.00000
     52      -1.3943      2.00000
     53      -1.3585      2.00000
     54      -1.3281      2.00000
     55      -1.3211      2.00000
     56      -1.2789      2.00000
     57      -1.2358      2.00000
     58      -1.2266      2.00000
     59      -1.1589      2.00000
     60      -1.1143      2.00000
     61      -1.1021      2.00000
     62      -1.0673      2.00000
     63      -1.0211      2.00000
     64      -1.0199      2.00000
     65      -1.0180      2.00000
     66      -1.0024      2.00000
     67      -0.9891      2.00000
     68      -0.9874      2.00000
     69      -0.9630      2.00000
     70      -0.9244      2.00000
     71      -0.9209      2.00000
     72      -0.9201      2.00000
     73      -0.8891      2.00000
     74      -0.8532      2.00000
     75      -0.8479      2.00000
     76      -0.8211      2.00000
     77      -0.8140      2.00000
     78      -0.8078      2.00000
     79      -0.7816      2.00000
     80      -0.7350      2.00000
     81      -0.7028      2.00000
     82      -0.6994      2.00000
     83      -0.6636      2.00000
     84      -0.6428      2.00000
     85      -0.6327      2.00000
     86      -0.6182      2.00000
     87      -0.5797      2.00000
     88      -0.5533      2.00000
     89      -0.5434      2.00000
     90      -0.5089      2.00000
     91      -0.4903      2.00000
     92      -0.4730      2.00000
     93      -0.4662      2.00000
     94      -0.4192      2.00000
     95      -0.4030      2.00000
     96      -0.3765      2.00000
     97      -0.3571      2.00000
     98      -0.3529      2.00000
     99      -0.3305      2.00000
    100      -0.3237      2.00000
    101      -0.2882      2.00000
    102      -0.2667      2.00000
    103      -0.2596      2.00000
    104      -0.2281      2.00000
    105      -0.2122      2.00000
    106      -0.2044      2.00000
    107      -0.1760      2.00000
    108      -0.1569      2.00000
    109      -0.1305      2.00000
    110      -0.1208      2.00000
    111      -0.0637      2.00000
    112      -0.0506      2.00000
    113       0.0754      2.00000
    114       0.1256      2.00000
    115       0.1640      2.00000
    116       0.1754      2.00000
    117       0.1823      2.00000
    118       0.2126      2.00000
    119       0.2355      2.00000
    120       0.2421      2.00000
    121       0.2525      2.00000
    122       0.2870      2.00000
    123       0.3512      2.00000
    124       0.3968      2.00000
    125       0.3978      2.00000
    126       0.4147      2.00000
    127       0.4793      2.00000
    128       0.5159      2.00000
    129       0.5266      2.00000
    130       0.5271      2.00000
    131       0.5407      2.00000
    132       0.5497      2.00000
    133       0.5826      2.00000
    134       0.6368      2.00000
    135       0.6909      2.00000
    136       0.7061      2.00000
    137       0.7100      2.00000
    138       0.7153      2.00000
    139       0.7259      2.00000
    140       0.7782      2.00000
    141       0.7851      2.00000
    142       0.7907      2.00000
    143       0.8196      2.00000
    144       0.8366      2.00000
    145       0.8460      2.00000
    146       0.8887      2.00000
    147       0.9379      2.00000
    148       0.9621      2.00000
    149       0.9873      2.00000
    150       1.0273      2.00000
    151       1.0638      2.00000
    152       1.0920      2.00000
    153       1.1013      2.00000
    154       1.1482      2.00000
    155       1.1617      2.00000
    156       1.1711      2.00000
    157       1.1933      2.00000
    158       1.2021      2.00000
    159       1.2380      2.00000
    160       1.3050      2.00000
    161       1.3575      2.00000
    162       1.3999      2.00000
    163       1.4546      2.00000
    164       1.4832      2.00000
    165       1.5309      2.00000
    166       1.5445      2.00000
    167       1.5707      2.00000
    168       1.5973      2.00000
    169       1.7541      2.00000
    170       1.7593      2.00000
    171       1.8724      2.00000
    172       1.8884      2.00000
    173       1.9988      2.00000
    174       2.0096      2.00000
    175       2.0250      2.00000
    176       2.0545      2.00000
    177       3.8342      0.00000
    178       3.9976      0.00000
    179       4.0038      0.00000
    180       4.1188      0.00000
    181       4.1568      0.00000
    182       4.3386      0.00000
    183       4.3406      0.00000
    184       4.3893      0.00000
    185       4.4189      0.00000
    186       4.4350      0.00000
    187       4.5161      0.00000
    188       4.5278      0.00000
    189       4.5532      0.00000
    190       4.5624      0.00000
    191       4.5972      0.00000
    192       4.6046      0.00000
    193       4.6419      0.00000
    194       4.7001      0.00000
    195       4.7294      0.00000
    196       4.7323      0.00000
    197       4.7954      0.00000
    198       4.8258      0.00000
    199       4.8318      0.00000
    200       4.9500      0.00000
    201       5.0707      0.00000
    202       5.2682      0.00000
    203       5.5786      0.00000
    204       5.7220      0.00000
    205       5.9120      0.00000
    206       5.9321      0.00000
    207       5.9457      0.00000
    208       5.9838      0.00000
    209       7.1544      0.00000
    210       7.2605      0.00000
    211       7.2709      0.00000

 k-point     2 :       0.2500    0.0000    0.0000
  band No.  band energies     occupation 
      1     -10.8299      2.00000
      2     -10.7220      2.00000
      3     -10.6894      2.00000
      4     -10.5322      2.00000
      5     -10.4783      2.00000
      6     -10.2558      2.00000
      7     -10.2119      2.00000
      8     -10.0549      2.00000
      9      -9.8938      2.00000
     10      -9.8901      2.00000
     11      -9.8736      2.00000
     12      -9.8518      2.00000
     13      -9.8479      2.00000
     14      -9.7978      2.00000
     15      -9.7860      2.00000
     16      -9.7441      2.00000
     17      -9.7307      2.00000
     18      -9.7171      2.00000
     19      -9.6991      2.00000
     20      -9.6945      2.00000
     21      -9.6894      2.00000
     22      -9.6603      2.00000
     23      -9.6484      2.00000
     24      -9.6327      2.00000
     25      -9.6114      2.00000
     26      -9.6089      2.00000
     27      -9.5845      2.00000
     28      -9.5682      2.00000
     29      -9.5576      2.00000
     30      -9.5521      2.00000
     31      -9.5414      2.00000
     32      -9.5173      2.00000
     33      -8.2288      2.00000
     34      -8.1213      2.00000
     35      -8.1123      2.00000
     36      -7.8818      2.00000
     37      -7.8573      2.00000
     38      -7.6790      2.00000
     39      -7.6296      2.00000
     40      -7.6013      2.00000
     41      -1.8003      2.00000
     42      -1.7466      2.00000
     43      -1.7177      2.00000
     44      -1.6890      2.00000
     45      -1.6500      2.00000
     46      -1.6083      2.00000
     47      -1.5618      2.00000
     48      -1.5465      2.00000
     49      -1.4946      2.00000
     50      -1.4516      2.00000
     51      -1.3956      2.00000
     52      -1.3847      2.00000
     53      -1.3506      2.00000
     54      -1.3235      2.00000
     55      -1.3015      2.00000
     56      -1.2723      2.00000
     57      -1.2254      2.00000
     58      -1.2023      2.00000
     59      -1.1800      2.00000
     60      -1.1318      2.00000
     61      -1.1170      2.00000
     62      -1.0850      2.00000
     63      -1.0526      2.00000
     64      -1.0355      2.00000
     65      -1.0214      2.00000
     66      -1.0010      2.00000
     67      -0.9786      2.00000
     68      -0.9675      2.00000
     69      -0.9475      2.00000
     70      -0.9371      2.00000
     71      -0.9168      2.00000
     72      -0.9047      2.00000
     73      -0.8877      2.00000
     74      -0.8738      2.00000
     75      -0.8399      2.00000
     76      -0.8194      2.00000
     77      -0.8132      2.00000
     78      -0.8100      2.00000
     79      -0.7642      2.00000
     80      -0.7549      2.00000
     81      -0.7066      2.00000
     82      -0.6813      2.00000
     83      -0.6605      2.00000
     84      -0.6487      2.00000
     85      -0.6318      2.00000
     86      -0.5926      2.00000
     87      -0.5828      2.00000
     88      -0.5553      2.00000
     89      -0.5124      2.00000
     90      -0.4999      2.00000
     91      -0.4819      2.00000
     92      -0.4728      2.00000
     93      -0.4439      2.00000
     94      -0.4196      2.00000
     95      -0.4006      2.00000
     96      -0.3897      2.00000
     97      -0.3747      2.00000
     98      -0.3687      2.00000
     99      -0.3427      2.00000
    100      -0.3157      2.00000
    101      -0.3045      2.00000
    102      -0.2840      2.00000
    103      -0.2284      2.00000
    104      -0.2245      2.00000
    105      -0.2103      2.00000
    106      -0.1795      2.00000
    107      -0.1618      2.00000
    108      -0.1588      2.00000
    109      -0.1474      2.00000
    110      -0.1355      2.00000
    111      -0.1018      2.00000
    112      -0.0523      2.00000
    113       0.0817      2.00000
    114       0.1100      2.00000
    115       0.1312      2.00000
    116       0.1475      2.00000
    117       0.1773      2.00000
    118       0.2268      2.00000
    119       0.2470      2.00000
    120       0.2637      2.00000
    121       0.2856      2.00000
    122       0.3355      2.00000
    123       0.3506      2.00000
    124       0.3555      2.00000
    125       0.4169      2.00000
    126       0.4468      2.00000
    127       0.4656      2.00000
    128       0.5111      2.00000
    129       0.5258      2.00000
    130       0.5532      2.00000
    131       0.5664      2.00000
    132       0.5909      2.00000
    133       0.6013      2.00000
    134       0.6256      2.00000
    135       0.6486      2.00000
    136       0.6860      2.00000
    137       0.6990      2.00000
    138       0.7179      2.00000
    139       0.7540      2.00000
    140       0.7597      2.00000
    141       0.7753      2.00000
    142       0.8119      2.00000
    143       0.8179      2.00000
    144       0.8319      2.00000
    145       0.8636      2.00000
    146       0.8972      2.00000
    147       0.9716      2.00000
    148       0.9875      2.00000
    149       0.9910      2.00000
    150       1.0105      2.00000
    151       1.0196      2.00000
    152       1.0788      2.00000
    153       1.1252      2.00000
    154       1.1479      2.00000
    155       1.1524      2.00000
    156       1.1536      2.00000
    157       1.1866      2.00000
    158       1.2096      2.00000
    159       1.2417      2.00000
    160       1.2939      2.00000
    161       1.3536      2.00000
    162       1.4080      2.00000
    163       1.4652      2.00000
    164       1.4782      2.00000
    165       1.5244      2.00000
    166       1.5486      2.00000
    167       1.5966      2.00000
    168       1.6182      2.00000
    169       1.7499      2.00000
    170       1.7632      2.00000
    171       1.8502      2.00000
    172       1.8753      2.00000
    173       1.9652      2.00000
    174       1.9743      2.00000
    175       2.0046      2.00000
    176       2.0165      2.00000
    177       3.8937      0.00000
    178       3.9845      0.00000
    179       4.0254      0.00000
    180       4.1402      0.00000
    181       4.1609      0.00000
    182       4.2981      0.00000
    183       4.3177      0.00000
    184       4.3898      0.00000
    185       4.4214      0.00000
    186       4.4455      0.00000
    187       4.4657      0.00000
    188       4.5045      0.00000
    189       4.5740      0.00000
    190       4.5820      0.00000
    191       4.5940      0.00000
    192       4.6220      0.00000
    193       4.6486      0.00000
    194       4.6562      0.00000
    195       4.6960      0.00000
    196       4.7553      0.00000
    197       4.7819      0.00000
    198       4.8242      0.00000
    199       4.8545      0.00000
    200       4.9288      0.00000
    201       5.1977      0.00000
    202       5.3526      0.00000
    203       5.5893      0.00000
    204       5.7341      0.00000
    205       5.8099      0.00000
    206       5.8303      0.00000
    207       5.9492      0.00000
    208       5.9631      0.00000
    209       7.2664      0.00000
    210       7.3002      0.00000
    211       7.3704      0.00000

 k-point     3 :      -0.0000   -0.2500   -0.0000
  band No.  band energies     occupation 
      1     -10.8306      2.00000
      2     -10.7460      2.00000
      3     -10.6450      2.00000
      4     -10.5646      2.00000
      5     -10.4463      2.00000
      6     -10.3186      2.00000
      7     -10.1618      2.00000
      8     -10.0602      2.00000
      9      -9.8901      2.00000
     10      -9.8835      2.00000
     11      -9.8611      2.00000
     12      -9.8530      2.00000
     13      -9.8492      2.00000
     14      -9.8245      2.00000
     15      -9.7848      2.00000
     16      -9.7360      2.00000
     17      -9.7352      2.00000
     18      -9.7202      2.00000
     19      -9.6997      2.00000
     20      -9.6951      2.00000
     21      -9.6835      2.00000
     22      -9.6765      2.00000
     23      -9.6392      2.00000
     24      -9.6273      2.00000
     25      -9.6225      2.00000
     26      -9.6076      2.00000
     27      -9.5813      2.00000
     28      -9.5590      2.00000
     29      -9.5550      2.00000
     30      -9.5522      2.00000
     31      -9.5457      2.00000
     32      -9.5183      2.00000
     33      -8.2175      2.00000
     34      -8.1648      2.00000
     35      -8.0650      2.00000
     36      -7.9406      2.00000
     37      -7.8014      2.00000
     38      -7.6772      2.00000
     39      -7.6346      2.00000
     40      -7.6102      2.00000
     41      -1.8066      2.00000
     42      -1.7483      2.00000
     43      -1.7326      2.00000
     44      -1.6816      2.00000
     45      -1.6790      2.00000
     46      -1.5920      2.00000
     47      -1.5439      2.00000
     48      -1.5005      2.00000
     49      -1.4616      2.00000
     50      -1.4535      2.00000
     51      -1.4373      2.00000
     52      -1.3986      2.00000
     53      -1.3405      2.00000
     54      -1.3186      2.00000
     55      -1.2876      2.00000
     56      -1.2784      2.00000
     57      -1.2727      2.00000
     58      -1.2036      2.00000
     59      -1.1545      2.00000
     60      -1.1441      2.00000
     61      -1.1014      2.00000
     62      -1.0934      2.00000
     63      -1.0845      2.00000
     64      -1.0319      2.00000
     65      -1.0269      2.00000
     66      -1.0056      2.00000
     67      -0.9943      2.00000
     68      -0.9533      2.00000
     69      -0.9493      2.00000
     70      -0.9297      2.00000
     71      -0.9132      2.00000
     72      -0.9082      2.00000
     73      -0.8943      2.00000
     74      -0.8608      2.00000
     75      -0.8321      2.00000
     76      -0.8181      2.00000
     77      -0.8019      2.00000
     78      -0.7836      2.00000
     79      -0.7596      2.00000
     80      -0.7491      2.00000
     81      -0.7154      2.00000
     82      -0.6747      2.00000
     83      -0.6519      2.00000
     84      -0.6340      2.00000
     85      -0.6316      2.00000
     86      -0.6096      2.00000
     87      -0.5873      2.00000
     88      -0.5540      2.00000
     89      -0.5315      2.00000
     90      -0.4882      2.00000
     91      -0.4857      2.00000
     92      -0.4747      2.00000
     93      -0.4519      2.00000
     94      -0.4154      2.00000
     95      -0.3909      2.00000
     96      -0.3789      2.00000
     97      -0.3723      2.00000
     98      -0.3480      2.00000
     99      -0.3250      2.00000
    100      -0.3231      2.00000
    101      -0.2900      2.00000
    102      -0.2783      2.00000
    103      -0.2740      2.00000
    104      -0.2267      2.00000
    105      -0.2238      2.00000
    106      -0.2100      2.00000
    107      -0.1874      2.00000
    108      -0.1799      2.00000
    109      -0.1545      2.00000
    110      -0.1466      2.00000
    111      -0.1144      2.00000
    112      -0.0809      2.00000
    113       0.0707      2.00000
    114       0.1437      2.00000
    115       0.1680      2.00000
    116       0.1793      2.00000
    117       0.2315      2.00000
    118       0.2438      2.00000
    119       0.2640      2.00000
    120       0.2773      2.00000
    121       0.3004      2.00000
    122       0.3447      2.00000
    123       0.3599      2.00000
    124       0.4006      2.00000
    125       0.4101      2.00000
    126       0.4164      2.00000
    127       0.4378      2.00000
    128       0.4660      2.00000
    129       0.4942      2.00000
    130       0.5162      2.00000
    131       0.5459      2.00000
    132       0.5611      2.00000
    133       0.6160      2.00000
    134       0.6485      2.00000
    135       0.6579      2.00000
    136       0.6689      2.00000
    137       0.7210      2.00000
    138       0.7289      2.00000
    139       0.7335      2.00000
    140       0.7570      2.00000
    141       0.7752      2.00000
    142       0.7921      2.00000
    143       0.8070      2.00000
    144       0.8428      2.00000
    145       0.8481      2.00000
    146       0.9084      2.00000
    147       0.9503      2.00000
    148       0.9552      2.00000
    149       0.9912      2.00000
    150       1.0205      2.00000
    151       1.0336      2.00000
    152       1.0921      2.00000
    153       1.1161      2.00000
    154       1.1483      2.00000
    155       1.1667      2.00000
    156       1.1771      2.00000
    157       1.1945      2.00000
    158       1.2225      2.00000
    159       1.2447      2.00000
    160       1.2706      2.00000
    161       1.4126      2.00000
    162       1.4462      2.00000
    163       1.4506      2.00000
    164       1.4608      2.00000
    165       1.5421      2.00000
    166       1.5678      2.00000
    167       1.5974      2.00000
[...]
    143       0.8281      2.00000
    144       0.8691      2.00000
    145       0.8989      2.00000
    146       0.9372      2.00000
    147       0.9652      2.00000
    148       1.0075      2.00000
    149       1.0177      2.00000
    150       1.0365      2.00000
    151       1.0588      2.00000
    152       1.0681      2.00000
    153       1.0988      2.00000
    154       1.1112      2.00000
    155       1.1458      2.00000
    156       1.1707      2.00000
    157       1.1967      2.00000
    158       1.2188      2.00000
    159       1.2422      2.00000
    160       1.2699      2.00000
    161       1.4473      2.00000
    162       1.4583      2.00000
    163       1.5012      2.00000
    164       1.5195      2.00000
    165       1.5796      2.00000
    166       1.5976      2.00000
    167       1.6189      2.00000
    168       1.6512      2.00000
    169       1.7416      2.00000
    170       1.7665      2.00000
    171       1.8319      2.00000
    172       1.8520      2.00000
    173       1.8661      2.00000
    174       1.8899      2.00000
    175       1.9818      2.00000
    176       2.0000      2.00000
    177       3.8065      0.00000
    178       3.8616      0.00000
    179       4.0168      0.00000
    180       4.0713      0.00000
    181       4.1169      0.00000
    182       4.1736      0.00000
    183       4.2430      0.00000
    184       4.3089      0.00000
    185       4.3352      0.00000
    186       4.3971      0.00000
    187       4.4260      0.00000
    188       4.4646      0.00000
    189       4.5768      0.00000
    190       4.6072      0.00000
    191       4.6491      0.00000
    192       4.6960      0.00000
    193       4.7331      0.00000
    194       4.7522      0.00000
    195       4.7701      0.00000
    196       4.7949      0.00000
    197       4.8331      0.00000
    198       4.8628      0.00000
    199       4.9445      0.00000
    200       4.9612      0.00000
    201       5.4928      0.00000
    202       5.5197      0.00000
    203       5.5725      0.00000
    204       5.6287      0.00000
    205       5.6798      0.00000
    206       5.7328      0.00000
    207       5.7549      0.00000
    208       5.8642      0.00000
    209       7.3994      0.00000
    210       7.4583      0.00000
    211       7.4963      0.00000

 k-point    36 :       0.5000    0.5000    0.5000
  band No.  band energies     occupation 
      1     -10.7696      2.00000
      2     -10.7693      2.00000
      3     -10.6409      2.00000
      4     -10.6407      2.00000
      5     -10.3846      2.00000
      6     -10.3839      2.00000
      7     -10.1186      2.00000
      8     -10.1171      2.00000
      9      -9.9074      2.00000
     10      -9.9040      2.00000
     11      -9.8207      2.00000
     12      -9.8185      2.00000
     13      -9.7911      2.00000
     14      -9.7910      2.00000
     15      -9.7504      2.00000
     16      -9.7497      2.00000
     17      -9.7282      2.00000
     18      -9.7273      2.00000
     19      -9.7056      2.00000
     20      -9.7017      2.00000
     21      -9.6961      2.00000
     22      -9.6931      2.00000
     23      -9.6396      2.00000
     24      -9.6340      2.00000
     25      -9.6163      2.00000
     26      -9.6136      2.00000
     27      -9.5874      2.00000
     28      -9.5842      2.00000
     29      -9.5538      2.00000
     30      -9.5497      2.00000
     31      -9.5406      2.00000
     32      -9.5395      2.00000
     33      -8.2005      2.00000
     34      -8.1990      2.00000
     35      -8.0066      2.00000
     36      -8.0041      2.00000
     37      -7.7663      2.00000
     38      -7.7640      2.00000
     39      -7.5879      2.00000
     40      -7.5870      2.00000
     41      -1.7823      2.00000
     42      -1.7821      2.00000
     43      -1.6779      2.00000
     44      -1.6765      2.00000
     45      -1.6329      2.00000
     46      -1.6312      2.00000
     47      -1.5408      2.00000
     48      -1.5395      2.00000
     49      -1.4915      2.00000
     50      -1.4906      2.00000
     51      -1.4599      2.00000
     52      -1.4584      2.00000
     53      -1.3798      2.00000
     54      -1.3784      2.00000
     55      -1.2890      2.00000
     56      -1.2878      2.00000
     57      -1.2721      2.00000
     58      -1.2705      2.00000
     59      -1.1431      2.00000
     60      -1.1390      2.00000
     61      -1.0494      2.00000
     62      -1.0459      2.00000
     63      -1.0137      2.00000
     64      -1.0087      2.00000
     65      -0.9990      2.00000
     66      -0.9917      2.00000
     67      -0.9726      2.00000
     68      -0.9661      2.00000
     69      -0.9219      2.00000
     70      -0.9108      2.00000
     71      -0.8896      2.00000
     72      -0.8850      2.00000
     73      -0.8721      2.00000
     74      -0.8713      2.00000
     75      -0.8453      2.00000
     76      -0.8445      2.00000
     77      -0.8326      2.00000
     78      -0.8273      2.00000
     79      -0.7462      2.00000
     80      -0.7455      2.00000
     81      -0.6978      2.00000
     82      -0.6927      2.00000
     83      -0.6254      2.00000
     84      -0.6244      2.00000
     85      -0.5906      2.00000
     86      -0.5897      2.00000
     87      -0.5525      2.00000
     88      -0.5512      2.00000
     89      -0.5231      2.00000
     90      -0.5192      2.00000
     91      -0.4820      2.00000
     92      -0.4795      2.00000
     93      -0.4098      2.00000
     94      -0.4049      2.00000
     95      -0.3848      2.00000
     96      -0.3827      2.00000
     97      -0.3632      2.00000
     98      -0.3588      2.00000
     99      -0.3160      2.00000
    100      -0.3134      2.00000
    101      -0.3082      2.00000
    102      -0.3052      2.00000
    103      -0.2605      2.00000
    104      -0.2541      2.00000
    105      -0.2113      2.00000
    106      -0.2091      2.00000
    107      -0.1899      2.00000
    108      -0.1841      2.00000
    109      -0.1483      2.00000
    110      -0.1456      2.00000
    111      -0.0877      2.00000
    112      -0.0823      2.00000
    113       0.0337      2.00000
    114       0.0365      2.00000
    115       0.1452      2.00000
    116       0.1475      2.00000
    117       0.2300      2.00000
    118       0.2363      2.00000
    119       0.2835      2.00000
    120       0.2855      2.00000
    121       0.3658      2.00000
    122       0.3680      2.00000
    123       0.3706      2.00000
    124       0.3745      2.00000
    125       0.4207      2.00000
    126       0.4218      2.00000
    127       0.4568      2.00000
    128       0.4569      2.00000
    129       0.5110      2.00000
    130       0.5162      2.00000
    131       0.5509      2.00000
    132       0.5552      2.00000
    133       0.5729      2.00000
    134       0.5765      2.00000
    135       0.6077      2.00000
    136       0.6088      2.00000
    137       0.6648      2.00000
    138       0.6717      2.00000
    139       0.6980      2.00000
    140       0.7047      2.00000
    141       0.7383      2.00000
    142       0.7431      2.00000
    143       0.8780      2.00000
    144       0.8828      2.00000
    145       0.9053      2.00000
    146       0.9136      2.00000
    147       1.0319      2.00000
    148       1.0346      2.00000
    149       1.0508      2.00000
    150       1.0560      2.00000
    151       1.0737      2.00000
    152       1.0738      2.00000
    153       1.0881      2.00000
    154       1.0901      2.00000
    155       1.1739      2.00000
    156       1.1749      2.00000
    157       1.2003      2.00000
    158       1.2025      2.00000
    159       1.2647      2.00000
    160       1.2687      2.00000
    161       1.4739      2.00000
    162       1.4751      2.00000
    163       1.5722      2.00000
    164       1.5776      2.00000
    165       1.5814      2.00000
    166       1.5832      2.00000
    167       1.6915      2.00000
    168       1.6931      2.00000
    169       1.7695      2.00000
    170       1.7726      2.00000
    171       1.8331      2.00000
    172       1.8363      2.00000
    173       1.8644      2.00000
    174       1.8650      2.00000
    175       2.0190      2.00000
    176       2.0202      2.00000
    177       3.7052      0.00000
    178       3.7055      0.00000
    179       3.9122      0.00000
    180       3.9128      0.00000
    181       4.0426      0.00000
    182       4.0438      0.00000
    183       4.2285      0.00000
    184       4.2289      0.00000
    185       4.3128      0.00000
    186       4.3171      0.00000
    187       4.4214      0.00000
    188       4.4239      0.00000
    189       4.6122      0.00000
    190       4.6160      0.00000
    191       4.7012      0.00000
    192       4.7039      0.00000
    193       4.8165      0.00000
    194       4.8195      0.00000
    195       4.8477      0.00000
    196       4.8487      0.00000
    197       4.9489      0.00000
    198       4.9501      0.00000
    199       5.0285      0.00000
    200       5.0300      0.00000
    201       5.5358      0.00000
    202       5.5375      0.00000
    203       5.5650      0.00000
    204       5.5668      0.00000
    205       5.5996      0.00000
    206       5.6195      0.00000
    207       5.8003      0.00000
    208       5.8009      0.00000
    209       7.2426      0.00000
    210       7.2447      0.00000
    211       7.5014      0.00000


--------------------------------------------------------------------------------------------------------


 soft charge-density along one line, spin component           1
         0         1         2         3         4         5         6         7         8         9
 total charge-density along one line
 
 pseudopotential strength for first ion, spin component:           1
 -6.521   0.003  -0.000   0.000  -0.001  -6.653   0.003  -0.000
  0.003  -6.521  -0.001   0.000  -0.001   0.003  -6.653  -0.001
 -0.000  -0.001  -6.522   0.002   0.004  -0.000  -0.001  -6.653
  0.000   0.000   0.002  -6.529   0.003   0.000   0.000   0.002
 -0.001  -0.001   0.004   0.003  -6.517  -0.001  -0.001   0.004
 -6.653   0.003  -0.000   0.000  -0.001  -6.754   0.003  -0.000
  0.003  -6.653  -0.001   0.000  -0.001   0.003  -6.754  -0.001
 -0.000  -0.001  -6.653   0.002   0.004  -0.000  -0.001  -6.754
  0.000   0.000   0.002  -6.660   0.003   0.000   0.000   0.002
 -0.001  -0.001   0.004   0.003  -6.649  -0.001  -0.001   0.003
  0.000   0.000  -0.001   0.000  -0.001   0.000   0.000  -0.001
  0.000   0.000  -0.001   0.001  -0.002   0.000   0.000  -0.001
 -0.005   0.005  -0.000  -0.000   0.000  -0.005   0.005  -0.000
 -0.000  -0.000   0.008  -0.006   0.000  -0.000  -0.000   0.008
  0.000  -0.000   0.004   0.006  -0.007   0.000  -0.000   0.004
 -0.007   0.007  -0.000  -0.000   0.000  -0.007   0.007  -0.000
 -0.000  -0.000   0.009  -0.007   0.000  -0.000  -0.000   0.009
  0.000  -0.000   0.005   0.007  -0.008   0.000  -0.000   0.004
 total augmentation occupancy for first ion, spin component:           1
  2.406  -0.020  -0.051  -0.016  -0.168  -0.412   0.011   0.049   0.014   0.149  -0.039   0.007   0.077  -0.003   0.021  -0.007
 -0.020   2.408  -0.121  -0.016  -0.125   0.011  -0.414   0.105   0.013   0.113  -0.035   0.006  -0.078  -0.021   0.002   0.007
 -0.051  -0.121   3.783   0.133   0.344   0.049   0.105  -1.654  -0.129  -0.343   0.214  -0.031  -0.021   0.237   0.087   0.001
 -0.016  -0.016   0.133   2.334   0.232   0.014   0.013  -0.129  -0.328  -0.224  -0.203   0.034  -0.000   0.054  -0.054   0.000
 -0.168  -0.125   0.344   0.232   4.179   0.149   0.113  -0.343  -0.224  -2.048   0.373  -0.054   0.011   0.036  -0.223  -0.001
 -0.412   0.011   0.049   0.014   0.149   0.401  -0.002  -0.047  -0.011  -0.133   0.035  -0.008  -0.062   0.002  -0.019   0.004
  0.011  -0.414   0.105   0.013   0.113  -0.002   0.403  -0.092  -0.011  -0.104   0.031  -0.007   0.062   0.019  -0.002  -0.004
  0.049   0.105  -1.654  -0.129  -0.343  -0.047  -0.092   1.520   0.124   0.341  -0.190   0.035   0.019  -0.215  -0.081  -0.001
  0.014   0.013  -0.129  -0.328  -0.224  -0.011  -0.011   0.124   0.306   0.216   0.187  -0.041   0.000  -0.039   0.039  -0.000
  0.149   0.113  -0.343  -0.224  -2.048  -0.133  -0.104   0.341   0.216   1.912  -0.332   0.061  -0.009  -0.031   0.201   0.001
 -0.039  -0.035   0.214  -0.203   0.373   0.035   0.031  -0.190   0.187  -0.332   1.486  -0.314  -0.000  -0.047   0.047   0.000
  0.007   0.006  -0.031   0.034  -0.054  -0.008  -0.007   0.035  -0.041   0.061  -0.314   0.072   0.000   0.011  -0.011  -0.000
  0.077  -0.078  -0.021  -0.000   0.011  -0.062   0.062   0.019   0.000  -0.009  -0.000   0.000   0.119   0.002   0.002  -0.008
 -0.003  -0.021   0.237   0.054   0.036   0.002   0.019  -0.215  -0.039  -0.031  -0.047   0.011   0.002   0.080   0.014  -0.000
  0.021   0.002   0.087  -0.054  -0.223  -0.019  -0.002  -0.081   0.039   0.201   0.047  -0.011   0.002   0.014   0.080  -0.000
 -0.007   0.007   0.001   0.000  -0.001   0.004  -0.004  -0.001  -0.000   0.001   0.000  -0.000  -0.008  -0.000  -0.000   0.001
  0.000   0.001  -0.010  -0.006  -0.001  -0.000  -0.001   0.014   0.003   0.001   0.004  -0.001  -0.000  -0.005  -0.001   0.000
 -0.001  -0.000  -0.004   0.006   0.009   0.001   0.000   0.006  -0.003  -0.012  -0.004   0.001  -0.000  -0.001  -0.005   0.000


------------------------ aborting loop because EDIFF is reached ----------------------------------------


 


 total charge     
 
# of ion       s       p       d       tot
------------------------------------------
    1        0.253   0.158   9.312   9.723
    2        0.241   0.151   9.320   9.712
    3        0.241   0.151   9.320   9.713
    4        0.238   0.147   9.323   9.708
    5        0.254   0.160   9.311   9.725
    6        0.241   0.151   9.320   9.712
    7        0.238   0.147   9.323   9.708
    8        0.241   0.151   9.320   9.713
    9        1.834   1.401   0.138   3.372
   10        1.833   1.400   0.135   3.368
   11        1.835   1.397   0.139   3.371
   12        1.834   1.401   0.138   3.372
   13        1.835   1.397   0.139   3.371
   14        1.834   1.400   0.138   3.372
   15        1.833   1.400   0.135   3.368
   16        1.834   1.400   0.138   3.372
   17        1.518   2.742   0.011   4.271
   18        1.514   2.742   0.017   4.273
   19        1.518   2.742   0.011   4.271
   20        1.518   2.742   0.012   4.272
   21        1.518   2.742   0.012   4.272
   22        1.518   2.742   0.012   4.273
   23        1.514   2.742   0.017   4.273
   24        1.518   2.742   0.013   4.273
   25        1.517   2.745   0.013   4.275
   26        1.513   2.748   0.016   4.276
   27        1.516   2.743   0.015   4.274
   28        1.513   2.748   0.016   4.276
   29        1.514   2.743   0.015   4.272
   30        1.516   2.743   0.015   4.274
   31        1.514   2.743   0.015   4.272
   32        1.517   2.745   0.013   4.275
   33        1.514   2.742   0.017   4.273
   34        1.518   2.742   0.012   4.273
   35        1.518   2.742   0.012   4.272
   36        1.518   2.742   0.012   4.273
   37        1.518   2.742   0.011   4.271
   38        1.518   2.742   0.012   4.272
   39        1.518   2.742   0.011   4.271
   40        1.514   2.742   0.017   4.273
   41        1.514   2.743   0.015   4.272
   42        1.517   2.746   0.012   4.275
   43        1.514   2.743   0.015   4.272
   44        1.516   2.744   0.015   4.274
   45        1.515   2.744   0.015   4.274
   46        1.513   2.747   0.016   4.276
   47        1.517   2.746   0.012   4.275
   48        1.513   2.748   0.016   4.276
--------------------------------------------------
tot         65.135 100.207  76.089 241.431
 


--------------------------------------------------------------------------------------------------------



  FREE ENERGIE OF THE ION-ELECTRON SYSTEM (eV)
  ---------------------------------------------------
  free  energy   TOTEN  =      -119.96436721 eV

  energy  without entropy=     -119.96436721  energy(sigma->0) =     -119.96436721
 


--------------------------------------------------------------------------------------------------------




--------------------------------------------------------------------------------------------------------


 writing wavefunctions
     LOOP+:  cpu time  113.5472: real time  113.9794
    4ORBIT:  cpu time    0.0000: real time    0.0000
 


 total charge     
 
# of ion       s       p       d       tot
------------------------------------------
    1        0.253   0.158   9.312   9.723
    2        0.241   0.151   9.320   9.712
    3        0.241   0.151   9.320   9.713
    4        0.238   0.147   9.323   9.708
    5        0.254   0.160   9.311   9.725
    6        0.241   0.151   9.320   9.712
    7        0.238   0.147   9.323   9.708
    8        0.241   0.151   9.320   9.713
    9        1.834   1.401   0.138   3.372
   10        1.833   1.400   0.135   3.368
   11        1.835   1.397   0.139   3.371
   12        1.834   1.401   0.138   3.372
   13        1.835   1.397   0.139   3.371
   14        1.834   1.400   0.138   3.372
   15        1.833   1.400   0.135   3.368
   16        1.834   1.400   0.138   3.372
   17        1.518   2.742   0.011   4.271
   18        1.514   2.742   0.017   4.273
   19        1.518   2.742   0.011   4.271
   20        1.518   2.742   0.012   4.272
   21        1.518   2.742   0.012   4.272
   22        1.518   2.742   0.012   4.273
   23        1.514   2.742   0.017   4.273
   24        1.518   2.742   0.013   4.273
   25        1.517   2.745   0.013   4.275
   26        1.513   2.748   0.016   4.276
   27        1.516   2.743   0.015   4.274
   28        1.513   2.748   0.016   4.276
   29        1.514   2.743   0.015   4.272
   30        1.516   2.743   0.015   4.274
   31        1.514   2.743   0.015   4.272
   32        1.517   2.745   0.013   4.275
   33        1.514   2.742   0.017   4.273
   34        1.518   2.742   0.012   4.273
   35        1.518   2.742   0.012   4.272
   36        1.518   2.742   0.012   4.273
   37        1.518   2.742   0.011   4.271
   38        1.518   2.742   0.012   4.272
   39        1.518   2.742   0.011   4.271
   40        1.514   2.742   0.017   4.273
   41        1.514   2.743   0.015   4.272
   42        1.517   2.746   0.012   4.275
   43        1.514   2.743   0.015   4.272
   44        1.516   2.744   0.015   4.274
   45        1.515   2.744   0.015   4.274
   46        1.513   2.747   0.016   4.276
   47        1.517   2.746   0.012   4.275
   48        1.513   2.748   0.016   4.276
--------------------------------------------------
tot         65.135 100.207  76.089 241.431
 
 BZINTS: Fermi energy:    2.054595;  352.000000 electrons
         Band energy:-0.758669E+03;  BLOECHL correction:    0.000000

 total amount of memory used by VASP MPI-rank0  2782079. kBytes
=======================================================================

   base      :      30000. kBytes
   nonl-proj :     303764. kBytes
   fftplans  :      34720. kBytes
   grid      :      70000. kBytes
   one-center:        746. kBytes
   wavefun   :    2342849. kBytes
 
  
  
 General timing and accounting informations for this job:
 ========================================================
  
                  Total CPU time used (sec):      153.757
                            User time (sec):      147.830
                          System time (sec):        5.927
                         Elapsed time (sec):      155.122
  
                   Maximum memory used (kb):     4341588.
                   Average memory used (kb):           0.
  
                          Minor page faults:       421915
                          Major page faults:           17
                 Voluntary context switches:         2603
